                         Program Version 4.2.1 -  RELEASE  -
|  1> ! DFT B3LYP def2-TZVPP TightSCF Grid5 NoFinalGrid SlowConv
|  2> %pal
|  3> nprocs 8
|  4> end
|  5> %method SpecialGridAtoms 26
|  6> SpecialGridIntAcc 7
|  7> end
|  8> %basis NewGTO 26 "CP(PPP)" end
|  9> end
| 10> * xyz 0 1
| 11> Fe 0.006906  0.000706 -0.000006
| 12> C  1.813821 -0.001302 -0.001041
| 13> C -0.983320  1.516294  0.000213
| 14> C -0.981646 -1.516205  0.000956
| 15> C  0.076814  0.000959 -1.815825
| 16> C  0.077244  0.001856  1.815607
| 17> O  2.970190 -0.002554 -0.001386
| 18> O -1.640297  2.467354  0.000415
| 19> O -1.638062 -2.467624  0.001058
| 20> O  0.150834  0.001048 -2.964200
| 21> O  0.147516 -0.000532  2.964209
| 22> *
| 23> # Note that the EPR block needs to below the coordinate block for the “all Fe” command (all irons) to be recognized.
| 24> %eprnmr nuclei = all Fe {rho, fgrad}
| 25> end
| 26>
| 27>                          ****END OF INPUT****

CARTESIAN COORDINATES (ANGSTROEM)
---------------------------------
  Fe     0.006906    0.000706   -0.000006
  C      1.813821   -0.001302   -0.001041
  C     -0.983320    1.516294    0.000213
  C     -0.981646   -1.516205    0.000956
  C      0.076814    0.000959   -1.815825
  C      0.077244    0.001856    1.815607
  O      2.970190   -0.002554   -0.001386
  O     -1.640297    2.467354    0.000415
  O     -1.638062   -2.467624    0.001058
  O      0.150834    0.001048   -2.964200
  O      0.147516   -0.000532    2.964209

 Total Charge           Charge          ....    0
 Multiplicity           Mult            ....    1
 Number of Electrons    NEL             ....   96
 Basis Dimension        Dim             ....  370

ORBITAL ENERGIES
----------------

  NO   OCC          E(Eh)            E(eV)
   0   2.0000    -256.107196     -6969.0311
   1   2.0000     -30.071787      -818.2949
   2   2.0000     -25.942261      -705.9248
   3   2.0000     -25.928533      -705.5512
   4   2.0000     -25.925901      -705.4796
   5   2.0000     -19.235577      -523.4267
   6   2.0000     -19.235565      -523.4263
   7   2.0000     -19.220461      -523.0153
   8   2.0000     -19.220423      -523.0143
   9   2.0000     -19.219627      -522.9926
  10   2.0000     -10.326985      -281.0116
  11   2.0000     -10.326970      -281.0111
  12   2.0000     -10.312361      -280.6136
  13   2.0000     -10.312182      -280.6087
  14   2.0000     -10.312161      -280.6082
  15   2.0000      -3.487278       -94.8937
  16   2.0000      -2.276471       -61.9459
  17   2.0000      -2.253477       -61.3202
  18   2.0000      -2.248059       -61.1728
  19   2.0000      -1.163215       -31.6527
  20   2.0000      -1.163086       -31.6492
  21   2.0000      -1.145714       -31.1765
  22   2.0000      -1.145573       -31.1726
  23   2.0000      -1.144936       -31.1553
  24   2.0000      -0.636181       -17.3114
  25   2.0000      -0.594010       -16.1638
  26   2.0000      -0.582841       -15.8599
  27   2.0000      -0.581892       -15.8341
  28   2.0000      -0.579205       -15.7610
  29   2.0000      -0.522992       -14.2313
  30   2.0000      -0.501069       -13.6348
  31   2.0000      -0.497292       -13.5320
  32   2.0000      -0.494036       -13.4434
  33   2.0000      -0.492038       -13.3890
  34   2.0000      -0.490716       -13.3531
  35   2.0000      -0.475827       -12.9479
  36   2.0000      -0.474047       -12.8995
  37   2.0000      -0.468185       -12.7400
  38   2.0000      -0.465450       -12.6655
  39   2.0000      -0.465316       -12.6619
  40   2.0000      -0.463738       -12.6190
  41   2.0000      -0.455479       -12.3942
  42   2.0000      -0.452165       -12.3040
  43   2.0000      -0.434769       -11.8307
  44   2.0000      -0.317483        -8.6392
  45   2.0000      -0.313821        -8.5395
  46   2.0000      -0.262874        -7.1532
  47   2.0000      -0.254684        -6.9303
  48   0.0000      -0.059071        -1.6074
  49   0.0000      -0.054258        -1.4764
  50   0.0000      -0.048210        -1.3119
  51   0.0000      -0.046553        -1.2668
  52   0.0000      -0.041022        -1.1163

MULLIKEN ATOMIC CHARGES
-----------------------
   0 Fe:    0.391485
   1 C :   -0.006576
   2 C :   -0.004235
   3 C :   -0.004048
   4 C :   -0.003915
   5 C :   -0.003991
   6 O :   -0.079980
   7 O :   -0.077157
   8 O :   -0.077039
   9 O :   -0.067270
  10 O :   -0.067273
Sum of atomic charges:    0.0000000

LOEWDIN ATOMIC CHARGES
----------------------
   0 Fe:    0.039784
   1 C :   -0.267900
   2 C :   -0.260214
   3 C :   -0.259971
   4 C :   -0.243901
   5 C :   -0.243968
   6 O :    0.238712
   7 O :    0.238580
   8 O :    0.238645
   9 O :    0.260121
  10 O :    0.260114

  Mayer bond orders larger than 0.100000
B(  0-Fe,  1-C ) :   1.0220 B(  0-Fe,  2-C ) :   1.0314 B(  0-Fe,  3-C ) :   1.0312
B(  0-Fe,  4-C ) :   1.0214 B(  0-Fe,  5-C ) :   1.0216 B(  0-Fe,  6-O ) :   0.1206
B(  0-Fe,  7-O ) :   0.1192 B(  0-Fe,  8-O ) :   0.1191 B(  0-Fe,  9-O ) :   0.1092
B(  0-Fe, 10-O ) :   0.1092 B(  1-C ,  6-O ) :   2.2355 B(  2-C ,  7-O ) :   2.2322
B(  3-C ,  8-O ) :   2.2323 B(  4-C ,  9-O ) :   2.2762 B(  5-C , 10-O ) :   2.2761

FINAL SINGLE POINT ENERGY     -1830.352692278119

DIPOLE MOMENT
-------------
                                X             Y             Z
Electronic contribution:      0.00522       0.00237      -0.00017
Nuclear contribution   :     -0.02020      -0.00218       0.00003
                        -----------------------------------------
Total Dipole Moment    :     -0.01499       0.00020      -0.00015
                        -----------------------------------------
Magnitude (a.u.)       :      0.01499
Magnitude (Debye)      :      0.03810

Rotational constants in cm-1:     0.031176     0.027618     0.025894
Rotational constants in MHz :   934.632307   827.956670   776.278510

                             ****ORCA TERMINATED NORMALLY****
TOTAL RUN TIME: 0 days 0 hours 2 minutes 15 seconds 869 msec
