                         Program Version 4.2.1 -  RELEASE  -
|  1> ! DFT B3LYP 6-31g TightSCF Grid5 NoFinalGrid SlowConv
|  2> %pal
|  3> nprocs 16
|  4> end
|  5> %method SpecialGridAtoms 26
|  6> SpecialGridIntAcc 7
|  7> end
|  8> %basis NewGTO 26 "CP(PPP)" end
|  9> end
| 10> # [Fe(lll)(CN)6]3- , s = 1/2 ,  m = 2s + 1
| 11> * xyz -3 2
| 12> Fe -0.000018 -0.000019  0.000039
| 13> C   1.942716 -0.035671  0.036581
| 14> C  -1.942739  0.036085 -0.036470
| 15> C  -0.035924  1.942941  0.036657
| 16> C   0.035719 -1.942959 -0.036888
| 17> C   0.035898  0.036368  1.942767
| 18> C  -0.035628 -0.036600 -1.942726
| 19> N   3.116883 -0.042390  0.042632
| 20> N  -3.116896  0.042905 -0.042321
| 21> N  -0.042631  3.117085  0.042625
| 22> N   0.042282 -3.117112 -0.042932
| 23> N   0.043454  0.043125  3.116934
| 24> N  -0.043116 -0.043759 -3.116897
| 25> *
| 26> # Note that the EPR block needs to below the coordinate block for
| 27> # the “all Fe” command (all irons) to be recognized.
| 28> %eprnmr nuclei = all Fe {rho, fgrad}
| 29> end
| 30>
| 31>                          ****END OF INPUT****

CARTESIAN COORDINATES (ANGSTROEM)
---------------------------------
  Fe    -0.000018   -0.000019    0.000039
  C      1.942716   -0.035671    0.036581
  C     -1.942739    0.036085   -0.036470
  C     -0.035924    1.942941    0.036657
  C      0.035719   -1.942959   -0.036888
  C      0.035898    0.036368    1.942767
  C     -0.035628   -0.036600   -1.942726
  N      3.116883   -0.042390    0.042632
  N     -3.116896    0.042905   -0.042321
  N     -0.042631    3.117085    0.042625
  N      0.042282   -3.117112   -0.042932
  N      0.043454    0.043125    3.116934
  N     -0.043116   -0.043759   -3.116897

 Total Charge           Charge          ....   -3
 Multiplicity           Mult            ....    2
 Number of Electrons    NEL             ....  107
 Basis Dimension        Dim             ....  168

ORBITAL ENERGIES
----------------
                 SPIN UP ORBITALS
  NO   OCC          E(Eh)            E(eV)
   0   1.0000    -255.666026     -6957.0262
   1   1.0000     -29.639113      -806.5213
   2   1.0000     -25.510617      -694.1792
   3   1.0000     -25.491420      -693.6568
   4   1.0000     -25.491332      -693.6544
   5   1.0000     -13.895763      -378.1229
   6   1.0000     -13.895756      -378.1228
   7   1.0000     -13.895749      -378.1226
   8   1.0000     -13.895738      -378.1223
   9   1.0000     -13.895707      -378.1214
  10   1.0000     -13.895695      -378.1211
  11   1.0000      -9.776860      -266.0419
  12   1.0000      -9.776841      -266.0414
  13   1.0000      -9.776817      -266.0407
  14   1.0000      -9.776792      -266.0400
  15   1.0000      -9.776775      -266.0396
  16   1.0000      -9.776752      -266.0389
  17   1.0000      -3.068910       -83.5093
  18   1.0000      -1.868325       -50.8397
  19   1.0000      -1.826193       -49.6932
  20   1.0000      -1.826005       -49.6881
  21   1.0000      -0.482340       -13.1251
  22   1.0000      -0.479252       -13.0411
  23   1.0000      -0.479216       -13.0401
  24   1.0000      -0.478692       -13.0259
  25   1.0000      -0.478034       -13.0080
  26   1.0000      -0.477994       -13.0069
  27   1.0000      -0.097547        -2.6544
  28   1.0000      -0.008933        -0.2431
  29   1.0000      -0.008865        -0.2412
  30   1.0000      -0.007431        -0.2022
  31   1.0000      -0.007393        -0.2012
  32   1.0000      -0.002508        -0.0683
  33   1.0000       0.039722         1.0809
  34   1.0000       0.050942         1.3862
  35   1.0000       0.050973         1.3870
  36   1.0000       0.068450         1.8626
  37   1.0000       0.072162         1.9636
  38   1.0000       0.072173         1.9639
  39   1.0000       0.072291         1.9671
  40   1.0000       0.075584         2.0568
  41   1.0000       0.075620         2.0577
  42   1.0000       0.094933         2.5833
  43   1.0000       0.096936         2.6378
  44   1.0000       0.096954         2.6383
  45   1.0000       0.108103         2.9416
  46   1.0000       0.108129         2.9423
  47   1.0000       0.108915         2.9637
  48   1.0000       0.123572         3.3626
  49   1.0000       0.123970         3.3734
  50   1.0000       0.124031         3.3750
  51   1.0000       0.130446         3.5496
  52   1.0000       0.156473         4.2578
  53   1.0000       0.156490         4.2583
  54   0.0000       0.405372        11.0307
  55   0.0000       0.405468        11.0334
  56   0.0000       0.448375        12.2009
  57   0.0000       0.451670        12.2906
  58   0.0000       0.451707        12.2916

                 SPIN DOWN ORBITALS
  NO   OCC          E(Eh)            E(eV)
   0   1.0000    -255.665960     -6957.0245
   1   1.0000     -29.617785      -805.9409
   2   1.0000     -25.483706      -693.4469
   3   1.0000     -25.478542      -693.3064
   4   1.0000     -25.478513      -693.3056
   5   1.0000     -13.895281      -378.1098
   6   1.0000     -13.895275      -378.1096
   7   1.0000     -13.895267      -378.1094
   8   1.0000     -13.895257      -378.1092
   9   1.0000     -13.895229      -378.1084
  10   1.0000     -13.895217      -378.1081
  11   1.0000      -9.777642      -266.0632
  12   1.0000      -9.777623      -266.0626
  13   1.0000      -9.777598      -266.0620
  14   1.0000      -9.777574      -266.0613
  15   1.0000      -9.777557      -266.0608
  16   1.0000      -9.777532      -266.0602
  17   1.0000      -3.017324       -82.1056
  18   1.0000      -1.786670       -48.6178
  19   1.0000      -1.786647       -48.6171
  20   1.0000      -1.784110       -48.5481
  21   1.0000      -0.481875       -13.1125
  22   1.0000      -0.478759       -13.0277
  23   1.0000      -0.478726       -13.0268
  24   1.0000      -0.478180       -13.0119
  25   1.0000      -0.477519       -12.9940
  26   1.0000      -0.477482       -12.9930
  27   1.0000      -0.097381        -2.6499
  28   1.0000      -0.010328        -0.2810
  29   1.0000      -0.010257        -0.2791
  30   1.0000      -0.003526        -0.0960
  31   1.0000      -0.003482        -0.0948
  32   1.0000      -0.002559        -0.0696
  33   1.0000       0.054781         1.4907
  34   1.0000       0.054808         1.4914
  35   1.0000       0.066715         1.8154
  36   1.0000       0.069120         1.8808
  37   1.0000       0.072344         1.9686
  38   1.0000       0.072353         1.9688
  39   1.0000       0.073227         1.9926
  40   1.0000       0.080140         2.1807
  41   1.0000       0.080179         2.1818
  42   1.0000       0.094639         2.5753
  43   1.0000       0.098386         2.6772
  44   1.0000       0.098405         2.6777
  45   1.0000       0.108764         2.9596
  46   1.0000       0.109757         2.9866
  47   1.0000       0.109771         2.9870
  48   1.0000       0.123120         3.3503
  49   1.0000       0.123182         3.3520
  50   1.0000       0.131387         3.5752
  51   1.0000       0.178395         4.8544
  52   1.0000       0.178409         4.8548
  53   0.0000       0.307945         8.3796
  54   0.0000       0.425317        11.5735
  55   0.0000       0.425421        11.5763
  56   0.0000       0.455727        12.4010
  57   0.0000       0.455732        12.4011

MULLIKEN ATOMIC CHARGES AND SPIN POPULATIONS
--------------------------------------------
   0 Fe:   -0.881727    1.135005
   1 C :    0.205494   -0.054357
   2 C :    0.205463   -0.054356
   3 C :    0.205458   -0.054348
   4 C :    0.205430   -0.054359
   5 C :    0.205488   -0.054241
   6 C :    0.205522   -0.054230
   7 N :   -0.558505    0.031881
   8 N :   -0.558492    0.031879
   9 N :   -0.558506    0.031868
  10 N :   -0.558500    0.031887
  11 N :   -0.558553    0.031694
  12 N :   -0.558573    0.031676
Sum of atomic charges         :   -3.0000000

LOEWDIN ATOMIC CHARGES AND SPIN POPULATIONS
-------------------------------------------
   0 Fe:   -1.074477    1.057815
   1 C :    0.010950   -0.036358
   2 C :    0.010944   -0.036356
   3 C :    0.010912   -0.036357
   4 C :    0.010911   -0.036363
   5 C :    0.010946   -0.036279
   6 C :    0.010948   -0.036273
   7 N :   -0.331831    0.026753
   8 N :   -0.331825    0.026754
   9 N :   -0.331815    0.026743
  10 N :   -0.331813    0.026761
  11 N :   -0.331921    0.026589
  12 N :   -0.331930    0.026572

  Mayer bond orders larger than 0.100000
B(  0-Fe,  1-C ) :   0.8938 B(  0-Fe,  2-C ) :   0.8938 B(  0-Fe,  3-C ) :   0.8936
B(  0-Fe,  4-C ) :   0.8936 B(  0-Fe,  5-C ) :   0.8938 B(  0-Fe,  6-C ) :   0.8938
B(  0-Fe,  7-N ) :   0.1493 B(  0-Fe,  8-N ) :   0.1493 B(  0-Fe,  9-N ) :   0.1493
B(  0-Fe, 10-N ) :   0.1493 B(  0-Fe, 11-N ) :   0.1494 B(  0-Fe, 12-N ) :   0.1493
B(  1-C ,  7-N ) :   2.6429 B(  2-C ,  8-N ) :   2.6429 B(  3-C ,  9-N ) :   2.6430
B(  4-C , 10-N ) :   2.6430 B(  5-C , 11-N ) :   2.6429 B(  6-C , 12-N ) :   2.6429

FINAL SINGLE POINT ENERGY     -1820.154074597336

DIPOLE MOMENT
-------------
                                X             Y             Z
Electronic contribution:     -0.00004       0.00008       0.00011
Nuclear contribution   :      0.00005       0.00005      -0.00011
                        -----------------------------------------
Total Dipole Moment    :      0.00001       0.00013      -0.00000
                        -----------------------------------------
Magnitude (a.u.)       :      0.00013
Magnitude (Debye)      :      0.00033

Rotational constants in cm-1:     0.023573     0.023566     0.022550
Rotational constants in MHz :   706.695549   706.491339   676.027389

                             ****ORCA TERMINATED NORMALLY****
TOTAL RUN TIME: 0 days 0 hours 0 minutes 22 seconds 997 msec
