                         Program Version 4.2.1 -  RELEASE  -
|  1> ! DFT B3LYP def2-TZVPP TightSCF Grid5 NoFinalGrid SlowConv
|  2> %pal
|  3> nprocs 8
|  4> end
|  5> %method SpecialGridAtoms 26
|  6> SpecialGridIntAcc 7
|  7> end
|  8> %basis NewGTO 26 "CP(PPP)" end
|  9> end
| 10> * xyz 0 1
| 11> Fe -0.006048  0.000584  0.000042
| 12> O   1.660892  0.005855 -0.000247
| 13> O  -0.545958  1.578335  0.000132
| 14> O  -0.554251 -0.792441 -1.360507
| 15> O  -0.554635 -0.792332  1.360581
| 16> *
| 17> # Note that the EPR block needs to below the coordinate block for the “all Fe” command (all irons) to be recognized.
| 18> %eprnmr nuclei = all Fe {rho, fgrad}
| 19> end
| 20>
| 21>                          ****END OF INPUT****

CARTESIAN COORDINATES (ANGSTROEM)
---------------------------------
  Fe    -0.006048    0.000584    0.000042
  O      1.660892    0.005855   -0.000247
  O     -0.545958    1.578335    0.000132
  O     -0.554251   -0.792441   -1.360507
  O     -0.554635   -0.792332    1.360581

 Total Charge           Charge          ....    0
 Multiplicity           Mult            ....    1
 Number of Electrons    NEL             ....   58
 Basis Dimension        Dim             ....  184

ORBITAL ENERGIES
----------------

  NO   OCC          E(Eh)            E(eV)
   0   2.0000    -256.339282     -6975.3465
   1   2.0000     -30.315193      -824.9183
   2   2.0000     -26.174687      -712.2494
   3   2.0000     -26.174571      -712.2463
   4   2.0000     -26.174538      -712.2454
   5   2.0000     -19.257785      -524.0310
   6   2.0000     -19.257662      -524.0276
   7   2.0000     -19.257652      -524.0274
   8   2.0000     -19.257638      -524.0270
   9   2.0000      -3.699603      -100.6713
  10   2.0000      -2.466983       -67.1300
  11   2.0000      -2.466722       -67.1229
  12   2.0000      -2.466656       -67.1211
  13   2.0000      -1.012798       -27.5596
  14   2.0000      -0.995109       -27.0783
  15   2.0000      -0.994992       -27.0751
  16   2.0000      -0.994973       -27.0746
  17   2.0000      -0.523165       -14.2361
  18   2.0000      -0.523111       -14.2346
  19   2.0000      -0.522674       -14.2227
  20   2.0000      -0.515591       -14.0299
  21   2.0000      -0.514983       -14.0134
  22   2.0000      -0.447762       -12.1842
  23   2.0000      -0.414844       -11.2885
  24   2.0000      -0.414620       -11.2824
  25   2.0000      -0.414323       -11.2743
  26   2.0000      -0.362966        -9.8768
  27   2.0000      -0.362619        -9.8674
  28   2.0000      -0.362546        -9.8654
  29   0.0000      -0.262725        -7.1491
  30   0.0000      -0.262576        -7.1451
  31   0.0000      -0.204837        -5.5739
  32   0.0000      -0.203777        -5.5451
  33   0.0000      -0.203354        -5.5335

MULLIKEN ATOMIC CHARGES
-----------------------
   0 Fe:    1.065840
   1 O :   -0.263680
   2 O :   -0.267640
   3 O :   -0.267239
   4 O :   -0.267280
Sum of atomic charges:   -0.0000000

LOEWDIN ATOMIC CHARGES
----------------------
   0 Fe:    0.805295
   1 O :   -0.199564
   2 O :   -0.202065
   3 O :   -0.201809
   4 O :   -0.201857

  Mayer bond orders larger than 0.100000
B(  0-Fe,  1-O ) :   1.6090 B(  0-Fe,  2-O ) :   1.6062 B(  0-Fe,  3-O ) :   1.6065
B(  0-Fe,  4-O ) :   1.6064 B(  1-O ,  2-O ) :   0.2628 B(  1-O ,  3-O ) :   0.2639
B(  1-O ,  4-O ) :   0.2639 B(  2-O ,  3-O ) :   0.2646 B(  2-O ,  4-O ) :   0.2645
B(  3-O ,  4-O ) :   0.2633

FINAL SINGLE POINT ENERGY     -1564.302376860399

DIPOLE MOMENT
-------------
                                X             Y             Z
Electronic contribution:     -0.01946       0.00192       0.00006
Nuclear contribution   :      0.01470      -0.00142      -0.00010
                        -----------------------------------------
Total Dipole Moment    :     -0.00476       0.00050      -0.00004
                        -----------------------------------------
Magnitude (a.u.)       :      0.00479
Magnitude (Debye)      :      0.01218

Rotational constants in cm-1:     0.143060     0.142034     0.141288
Rotational constants in MHz :  4288.832755  4258.062181  4235.702110

                             ****ORCA TERMINATED NORMALLY****
TOTAL RUN TIME: 0 days 0 hours 0 minutes 48 seconds 264 msec
