                         Program Version 4.2.1 -  RELEASE  -
|  1> ! DFT B3LYP 6-31g TightSCF Grid5 NoFinalGrid SlowConv
|  2> %pal
|  3> nprocs 16
|  4> end
|  5> %method SpecialGridAtoms 26
|  6> SpecialGridIntAcc 7
|  7> end
|  8> %basis NewGTO 26 "CP(PPP)" end
|  9> end
| 10> # [{Fe-NO}^7]0 , s = 1/2 ,  m = 2s + 1
| 11> * xyz 0 2
| 12> Fe -0.006386 -0.186355 -0.663873
| 13> S 1.700097 -1.679401 -0.211164
| 14> S 1.544625 1.540727 -0.708019
| 15> S -1.650605 -1.845280 -0.361512
| 16> S -1.630088 1.377547 -0.676264
| 17> C 5.519615 0.881847 -0.206807
| 18> C 5.608257 -0.502000 -0.003554
| 19> C 4.443638 -1.272539 -0.005198
| 20> C 3.199454 -0.650906 -0.183607
| 21> C 3.094532 0.733194 -0.409947
| 22> C 4.285190 1.493448 -0.407038
| 23> C -3.154026 -0.908425 -0.248825
| 24> C -3.177542 0.490342 -0.380027
| 25> C -4.393958 -1.552134 -0.034064
| 26> C -5.579011 -0.820398 0.020747
| 27> C -5.576172 0.571982 -0.142694
| 28> C -4.365396 1.227566 -0.352609
| 29> C 1.327233 -1.941070 1.590112
| 30> C -1.323662 2.111848 0.997698
| 31> C -0.711614 1.123274 1.950115
| 32> C 0.644647 -0.760063 2.223933
| 33> N -0.053784 0.070078 1.415251
| 34> C 0.705902 -0.552975 3.601994
| 35> C -0.731125 1.353476 3.325783
| 36> C -0.002671 0.508876 4.160610
| 37> H 6.422278 1.486938 -0.213744
| 38> H 6.575128 -0.975611 0.138374
| 39> H 4.500954 -2.349197 0.133391
| 40> H 4.225942 2.566259 -0.569654
| 41> H -4.418588 -2.632640 0.082643
| 42> H -6.519720 -1.340501 0.182757
| 43> H -6.500366 1.140228 -0.116120
| 44> H -4.334036 2.305904 -0.485791
| 45> H 2.248636 -2.204242 2.113445
| 46> H 0.668884 -2.815632 1.591764
| 47> H -2.261147 2.525851 1.370666
| 48> H -0.616363 2.926946 0.814300
| 49> H 1.306881 -1.209271 4.222238
| 50> H -1.279123 2.200577 3.725636
| 51> H 0.026490 0.686156 5.231422
| 52> N 0.094944 -0.315323 -2.387067
| 53> O 0.094422 0.351832 -3.374413
| 54> *
| 55> # Note that the EPR block needs to below the coordinate block for
| 56> # the “all Fe” command (all irons) to be recognized.
| 57> %eprnmr nuclei = all Fe {rho, fgrad}
| 58> end
| 59>
| 60>                          ****END OF INPUT****

CARTESIAN COORDINATES (ANGSTROEM)
---------------------------------
  Fe    -0.006386   -0.186355   -0.663873
  S      1.700097   -1.679401   -0.211164
  S      1.544625    1.540727   -0.708019
  S     -1.650605   -1.845280   -0.361512
  S     -1.630088    1.377547   -0.676264
  C      5.519615    0.881847   -0.206807
  C      5.608257   -0.502000   -0.003554
  C      4.443638   -1.272539   -0.005198
  C      3.199454   -0.650906   -0.183607
  C      3.094532    0.733194   -0.409947
  C      4.285190    1.493448   -0.407038
  C     -3.154026   -0.908425   -0.248825
  C     -3.177542    0.490342   -0.380027
  C     -4.393958   -1.552134   -0.034064
  C     -5.579011   -0.820398    0.020747
  C     -5.576172    0.571982   -0.142694
  C     -4.365396    1.227566   -0.352609
  C      1.327233   -1.941070    1.590112
  C     -1.323662    2.111848    0.997698
  C     -0.711614    1.123274    1.950115
  C      0.644647   -0.760063    2.223933
  N     -0.053784    0.070078    1.415251
  C      0.705902   -0.552975    3.601994
  C     -0.731125    1.353476    3.325783
  C     -0.002671    0.508876    4.160610
  H      6.422278    1.486938   -0.213744
  H      6.575128   -0.975611    0.138374
  H      4.500954   -2.349197    0.133391
  H      4.225942    2.566259   -0.569654
  H     -4.418588   -2.632640    0.082643
  H     -6.519720   -1.340501    0.182757
  H     -6.500366    1.140228   -0.116120
  H     -4.334036    2.305904   -0.485791
  H      2.248636   -2.204242    2.113445
  H      0.668884   -2.815632    1.591764
  H     -2.261147    2.525851    1.370666
  H     -0.616363    2.926946    0.814300
  H      1.306881   -1.209271    4.222238
  H     -1.279123    2.200577    3.725636
  H      0.026490    0.686156    5.231422
  N      0.094944   -0.315323   -2.387067
  O      0.094422    0.351832   -3.374413

 Total Charge           Charge          ....    0
 Multiplicity           Mult            ....    2
 Number of Electrons    NEL             ....  241
 Basis Dimension        Dim             ....  340

ORBITAL ENERGIES
----------------
                 SPIN UP ORBITALS
  NO   OCC          E(Eh)            E(eV)
   0   1.0000    -256.044809     -6967.3335
   1   1.0000     -88.906088     -2419.2576
   2   1.0000     -88.902429     -2419.1581
   3   1.0000     -88.811116     -2416.6733
   4   1.0000     -88.806948     -2416.5599
   5   1.0000     -29.996876      -816.2565
   6   1.0000     -25.862938      -703.7663
   7   1.0000     -25.857373      -703.6149
   8   1.0000     -25.854818      -703.5454
   9   1.0000     -19.221487      -523.0433
  10   1.0000     -14.440614      -392.9491
  11   1.0000     -14.390390      -391.5824
  12   1.0000     -10.271763      -279.5089
  13   1.0000     -10.271733      -279.5081
  14   1.0000     -10.243036      -278.7272
  15   1.0000     -10.242719      -278.7186
  16   1.0000     -10.236816      -278.5579
  17   1.0000     -10.228277      -278.3256
  18   1.0000     -10.228107      -278.3209
  19   1.0000     -10.219880      -278.0971
  20   1.0000     -10.218593      -278.0621
  21   1.0000     -10.217025      -278.0194
  22   1.0000     -10.216487      -278.0047
  23   1.0000     -10.196665      -277.4654
  24   1.0000     -10.194962      -277.4190
  25   1.0000     -10.187902      -277.2269
  26   1.0000     -10.186621      -277.1921
  27   1.0000     -10.183744      -277.1138
  28   1.0000     -10.182997      -277.0934
  29   1.0000     -10.182295      -277.0743
  30   1.0000     -10.181649      -277.0568
  31   1.0000      -7.984427      -217.2673
  32   1.0000      -7.980344      -217.1562
  33   1.0000      -7.889621      -214.6875
  34   1.0000      -7.884880      -214.5585
  35   1.0000      -5.947866      -161.8497
  36   1.0000      -5.944270      -161.7518
  37   1.0000      -5.944026      -161.7452
  38   1.0000      -5.940072      -161.6376
  39   1.0000      -5.938250      -161.5880
  40   1.0000      -5.934219      -161.4783
  41   1.0000      -5.854285      -159.3032
  42   1.0000      -5.849629      -159.1765
  43   1.0000      -5.847730      -159.1248
  44   1.0000      -5.844464      -159.0360
  45   1.0000      -5.842939      -158.9944
  46   1.0000      -5.839826      -158.9097
  47   1.0000      -3.427345       -93.2628
  48   1.0000      -2.211316       -60.1730
  49   1.0000      -2.198469       -59.8234
  50   1.0000      -2.190012       -59.5933
  51   1.0000      -1.197023       -32.5727
  52   1.0000      -1.003933       -27.3184
  53   1.0000      -0.878613       -23.9083
  54   1.0000      -0.874021       -23.7833
  55   1.0000      -0.853646       -23.2289
  56   1.0000      -0.845420       -23.0050
  57   1.0000      -0.824592       -22.4383
  58   1.0000      -0.797262       -21.6946
  59   1.0000      -0.770352       -20.9623
  60   1.0000      -0.767546       -20.8860
  61   1.0000      -0.755834       -20.5673
  62   1.0000      -0.741531       -20.1781
  63   1.0000      -0.704388       -19.1674
  64   1.0000      -0.689214       -18.7545
  65   1.0000      -0.678175       -18.4541
  66   1.0000      -0.663652       -18.0589
  67   1.0000      -0.662264       -18.0211
  68   1.0000      -0.646651       -17.5963
  69   1.0000      -0.640430       -17.4270
  70   1.0000      -0.599604       -16.3160
  71   1.0000      -0.597695       -16.2641
  72   1.0000      -0.577547       -15.7159
  73   1.0000      -0.571538       -15.5523
  74   1.0000      -0.548134       -14.9155
  75   1.0000      -0.530426       -14.4336
  76   1.0000      -0.511039       -13.9061
  77   1.0000      -0.497612       -13.5407
  78   1.0000      -0.495806       -13.4916
  79   1.0000      -0.492422       -13.3995
  80   1.0000      -0.489903       -13.3309
  81   1.0000      -0.474140       -12.9020
  82   1.0000      -0.471341       -12.8258
  83   1.0000      -0.467445       -12.7198
  84   1.0000      -0.461919       -12.5694
  85   1.0000      -0.461213       -12.5503
  86   1.0000      -0.458149       -12.4669
  87   1.0000      -0.455348       -12.3906
  88   1.0000      -0.446544       -12.1511
  89   1.0000      -0.443697       -12.0736
  90   1.0000      -0.428997       -11.6736
  91   1.0000      -0.421260       -11.4631
  92   1.0000      -0.408449       -11.1145
  93   1.0000      -0.405022       -11.0212
  94   1.0000      -0.400031       -10.8854
  95   1.0000      -0.397585       -10.8188
  96   1.0000      -0.391600       -10.6560
  97   1.0000      -0.379629       -10.3302
  98   1.0000      -0.370792       -10.0898
  99   1.0000      -0.359369        -9.7789
 100   1.0000      -0.354490        -9.6462
 101   1.0000      -0.345853        -9.4111
 102   1.0000      -0.339056        -9.2262
 103   1.0000      -0.335042        -9.1169
 104   1.0000      -0.326291        -8.8788
 105   1.0000      -0.322126        -8.7655
 106   1.0000      -0.311338        -8.4719
 107   1.0000      -0.293881        -7.9969
 108   1.0000      -0.286995        -7.8095
 109   1.0000      -0.280951        -7.6451
 110   1.0000      -0.277403        -7.5485
 111   1.0000      -0.265398        -7.2218
 112   1.0000      -0.257383        -7.0038
 113   1.0000      -0.250857        -6.8262
 114   1.0000      -0.246290        -6.7019
 115   1.0000      -0.240281        -6.5384
 116   1.0000      -0.232638        -6.3304
 117   1.0000      -0.227007        -6.1772
 118   1.0000      -0.189863        -5.1664
 119   1.0000      -0.186749        -5.0817
 120   1.0000      -0.174390        -4.7454
 121   0.0000      -0.069795        -1.8992
 122   0.0000      -0.057031        -1.5519
 123   0.0000      -0.045823        -1.2469
 124   0.0000      -0.034404        -0.9362
 125   0.0000      -0.015164        -0.4126

                 SPIN DOWN ORBITALS
  NO   OCC          E(Eh)            E(eV)
   0   1.0000    -256.044730     -6967.3313
   1   1.0000     -88.906151     -2419.2593
   2   1.0000     -88.902307     -2419.1548
   3   1.0000     -88.811157     -2416.6744
   4   1.0000     -88.806952     -2416.5600
   5   1.0000     -29.992333      -816.1329
   6   1.0000     -25.858469      -703.6447
   7   1.0000     -25.855242      -703.5569
   8   1.0000     -25.850155      -703.4185
   9   1.0000     -19.211389      -522.7685
  10   1.0000     -14.429361      -392.6429
  11   1.0000     -14.390008      -391.5720
  12   1.0000     -10.271824      -279.5105
  13   1.0000     -10.271698      -279.5071
  14   1.0000     -10.243077      -278.7283
  15   1.0000     -10.242675      -278.7174
  16   1.0000     -10.236826      -278.5582
  17   1.0000     -10.228264      -278.3252
  18   1.0000     -10.228078      -278.3201
  19   1.0000     -10.219895      -278.0975
  20   1.0000     -10.218605      -278.0624
  21   1.0000     -10.217038      -278.0198
  22   1.0000     -10.216495      -278.0050
  23   1.0000     -10.196661      -277.4652
  24   1.0000     -10.194962      -277.4190
  25   1.0000     -10.187911      -277.2272
  26   1.0000     -10.186613      -277.1918
  27   1.0000     -10.183726      -277.1133
  28   1.0000     -10.182992      -277.0933
  29   1.0000     -10.182310      -277.0748
  30   1.0000     -10.181661      -277.0571
  31   1.0000      -7.984485      -217.2689
  32   1.0000      -7.980215      -217.1527
  33   1.0000      -7.889661      -214.6886
  34   1.0000      -7.884880      -214.5585
  35   1.0000      -5.947905      -161.8507
  36   1.0000      -5.944337      -161.7536
  37   1.0000      -5.943934      -161.7427
  38   1.0000      -5.939909      -161.6331
  39   1.0000      -5.938431      -161.5929
  40   1.0000      -5.933967      -161.4714
  41   1.0000      -5.854323      -159.3042
  42   1.0000      -5.849617      -159.1762
  43   1.0000      -5.847910      -159.1297
  44   1.0000      -5.844424      -159.0349
  45   1.0000      -5.842962      -158.9951
  46   1.0000      -5.839843      -158.9102
  47   1.0000      -3.416598       -92.9703
  48   1.0000      -2.197301       -59.7916
  49   1.0000      -2.190420       -59.6044
  50   1.0000      -2.178227       -59.2726
  51   1.0000      -1.175345       -31.9828
  52   1.0000      -1.003557       -27.3082
  53   1.0000      -0.878642       -23.9091
  54   1.0000      -0.873981       -23.7822
  55   1.0000      -0.853625       -23.2283
  56   1.0000      -0.845303       -23.0019
  57   1.0000      -0.824513       -22.4361
  58   1.0000      -0.797200       -21.6929
  59   1.0000      -0.770361       -20.9626
  60   1.0000      -0.767571       -20.8867
  61   1.0000      -0.755824       -20.5670
  62   1.0000      -0.741514       -20.1776
  63   1.0000      -0.704087       -19.1592
  64   1.0000      -0.689146       -18.7526
  65   1.0000      -0.672956       -18.3121
  66   1.0000      -0.662792       -18.0355
  67   1.0000      -0.646538       -17.5932
  68   1.0000      -0.642090       -17.4722
  69   1.0000      -0.636408       -17.3175
  70   1.0000      -0.599518       -16.3137
  71   1.0000      -0.597712       -16.2646
  72   1.0000      -0.577451       -15.7132
  73   1.0000      -0.571470       -15.5505
  74   1.0000      -0.547784       -14.9059
  75   1.0000      -0.530197       -14.4274
  76   1.0000      -0.509587       -13.8666
  77   1.0000      -0.496926       -13.5220
  78   1.0000      -0.495695       -13.4885
  79   1.0000      -0.489765       -13.3272
  80   1.0000      -0.474591       -12.9143
  81   1.0000      -0.469388       -12.7727
  82   1.0000      -0.467321       -12.7165
  83   1.0000      -0.461072       -12.5464
  84   1.0000      -0.458188       -12.4679
  85   1.0000      -0.455073       -12.3832
  86   1.0000      -0.450436       -12.2570
  87   1.0000      -0.445085       -12.1114
  88   1.0000      -0.443496       -12.0681
  89   1.0000      -0.428675       -11.6648
  90   1.0000      -0.425870       -11.5885
  91   1.0000      -0.420948       -11.4546
  92   1.0000      -0.408073       -11.1042
  93   1.0000      -0.404921       -11.0185
  94   1.0000      -0.399747       -10.8777
  95   1.0000      -0.394801       -10.7431
  96   1.0000      -0.390196       -10.6178
  97   1.0000      -0.379439       -10.3251
  98   1.0000      -0.370222       -10.0743
  99   1.0000      -0.358458        -9.7541
 100   1.0000      -0.354471        -9.6456
 101   1.0000      -0.342875        -9.3301
 102   1.0000      -0.337945        -9.1959
 103   1.0000      -0.334786        -9.1100
 104   1.0000      -0.326025        -8.8716
 105   1.0000      -0.321493        -8.7483
 106   1.0000      -0.310152        -8.4397
 107   1.0000      -0.291588        -7.9345
 108   1.0000      -0.286942        -7.8081
 109   1.0000      -0.279833        -7.6147
 110   1.0000      -0.277239        -7.5441
 111   1.0000      -0.263277        -7.1641
 112   1.0000      -0.253086        -6.8868
 113   1.0000      -0.250119        -6.8061
 114   1.0000      -0.241164        -6.5624
 115   1.0000      -0.233094        -6.3428
 116   1.0000      -0.226088        -6.1522
 117   1.0000      -0.224366        -6.1053
 118   1.0000      -0.186913        -5.0862
 119   1.0000      -0.173944        -4.7332
 120   0.0000      -0.063564        -1.7297
 121   0.0000      -0.053840        -1.4651
 122   0.0000      -0.048410        -1.3173
 123   0.0000      -0.045082        -1.2267
 124   0.0000      -0.027930        -0.7600

MULLIKEN ATOMIC CHARGES AND SPIN POPULATIONS
--------------------------------------------
   0 Fe:   -0.022147    0.204153
   1 S :    0.467092    0.017786
   2 S :    0.066035   -0.008063
   3 S :    0.046287   -0.002023
   4 S :    0.503966   -0.015600
   5 C :   -0.107377   -0.000678
   6 C :   -0.134846    0.001275
   7 C :   -0.093667   -0.000512
   8 C :   -0.311003   -0.000111
   9 C :   -0.239565   -0.000957
  10 C :   -0.124221    0.000832
  11 C :   -0.230248    0.000228
  12 C :   -0.321183   -0.000976
  13 C :   -0.131100   -0.000864
  14 C :   -0.106613    0.000622
  15 C :   -0.136506   -0.001071
  16 C :   -0.087772    0.000631
  17 C :   -0.582585   -0.002845
  18 C :   -0.586605    0.004100
  19 C :    0.336095   -0.003046
  20 C :    0.335214    0.000754
  21 N :   -0.511992    0.012493
  22 C :   -0.114987    0.001088
  23 C :   -0.113462    0.000873
  24 C :   -0.118498   -0.000836
  25 H :    0.129231    0.000008
  26 H :    0.126679   -0.000050
  27 H :    0.137755   -0.000066
  28 H :    0.142840   -0.000050
  29 H :    0.141513    0.000014
  30 H :    0.127768   -0.000020
  31 H :    0.126339    0.000029
  32 H :    0.136638    0.000024
  33 H :    0.195476   -0.000336
  34 H :    0.242004    0.000011
  35 H :    0.198272    0.000242
  36 H :    0.244311   -0.000060
  37 H :    0.155784    0.000641
  38 H :    0.156260   -0.000185
  39 H :    0.156728    0.000024
  40 N :    0.116106    0.477494
  41 O :   -0.214016    0.315029
Sum of atomic charges         :   -0.0000000

LOEWDIN ATOMIC CHARGES AND SPIN POPULATIONS
-------------------------------------------
   0 Fe:   -0.976219    0.206748
   1 S :    0.528583    0.016150
   2 S :    0.051774   -0.006206
   3 S :    0.034018   -0.001899
   4 S :    0.567189   -0.011155
   5 C :   -0.100684   -0.000465
   6 C :   -0.135384    0.001039
   7 C :   -0.105165    0.000044
   8 C :   -0.197823   -0.000316
   9 C :   -0.134373   -0.000676
  10 C :   -0.116956    0.000519
  11 C :   -0.133703   -0.000237
  12 C :   -0.203003   -0.000870
  13 C :   -0.117254   -0.000673
  14 C :   -0.101571    0.000430
  15 C :   -0.135720   -0.000875
  16 C :   -0.107944    0.000168
  17 C :   -0.303239   -0.001988
  18 C :   -0.303373    0.002538
  19 C :    0.084408   -0.002668
  20 C :    0.083555    0.001667
  21 N :   -0.034275    0.013164
  22 C :   -0.120634    0.001330
  23 C :   -0.119693    0.000591
  24 C :   -0.067338   -0.000577
  25 H :    0.119309    0.000002
  26 H :    0.118070   -0.000027
  27 H :    0.123844    0.000025
  28 H :    0.129137   -0.000040
  29 H :    0.128433    0.000026
  30 H :    0.118756   -0.000013
  31 H :    0.117878    0.000010
  32 H :    0.122810   -0.000062
  33 H :    0.143539   -0.000220
  34 H :    0.169858    0.000028
  35 H :    0.144870    0.000250
  36 H :    0.170904   -0.000092
  37 H :    0.133980    0.000511
  38 H :    0.134343   -0.000248
  39 H :    0.133359    0.000015
  40 N :    0.223475    0.455272
  41 O :   -0.067738    0.328779

  Mayer bond orders larger than 0.100000
B(  0-Fe,  1-S ) :   0.5954 B(  0-Fe,  2-S ) :   0.8554 B(  0-Fe,  3-S ) :   0.8318
B(  0-Fe,  4-S ) :   0.6608 B(  0-Fe, 21-N ) :   0.3999 B(  0-Fe, 40-N ) :   1.1188
B(  0-Fe, 41-O ) :   0.3992 B(  1-S ,  8-C ) :   0.9345 B(  1-S , 17-C ) :   0.9102
B(  2-S ,  9-C ) :   1.0497 B(  3-S , 11-C ) :   1.0667 B(  4-S , 12-C ) :   0.9163
B(  4-S , 18-C ) :   0.9083 B(  5-C ,  6-C ) :   1.4078 B(  5-C , 10-C ) :   1.4773
B(  5-C , 25-H ) :   0.9325 B(  6-C ,  7-C ) :   1.4617 B(  6-C , 26-H ) :   0.9322
B(  7-C ,  8-C ) :   1.3988 B(  7-C , 27-H ) :   0.9275 B(  8-C ,  9-C ) :   1.3303
B(  9-C , 10-C ) :   1.3758 B( 10-C , 28-H ) :   0.9269 B( 11-C , 12-C ) :   1.3282
B( 11-C , 13-C ) :   1.3706 B( 12-C , 16-C ) :   1.3988 B( 13-C , 14-C ) :   1.4771
B( 13-C , 29-H ) :   0.9276 B( 14-C , 15-C ) :   1.4074 B( 14-C , 30-H ) :   0.9330
B( 15-C , 16-C ) :   1.4626 B( 15-C , 31-H ) :   0.9319 B( 16-C , 32-H ) :   0.9263
B( 17-C , 20-C ) :   0.8927 B( 17-C , 33-H ) :   0.9164 B( 17-C , 34-H ) :   0.8967
B( 18-C , 19-C ) :   0.8905 B( 18-C , 35-H ) :   0.9135 B( 18-C , 36-H ) :   0.8932
B( 19-C , 21-N ) :   1.2480 B( 19-C , 23-C ) :   1.4295 B( 20-C , 21-N ) :   1.2439
B( 20-C , 22-C ) :   1.4329 B( 22-C , 24-C ) :   1.4253 B( 22-C , 37-H ) :   0.9224
B( 23-C , 24-C ) :   1.4284 B( 23-C , 38-H ) :   0.9228 B( 24-C , 39-H ) :   0.9251
B( 40-N , 41-O ) :   1.5446

FINAL SINGLE POINT ENERGY     -3773.066225186325

DIPOLE MOMENT
-------------
                                X             Y             Z
Electronic contribution:      0.00579      -2.53317     -15.05690
Nuclear contribution   :      0.10430       3.01092      18.66164
                        -----------------------------------------
Total Dipole Moment    :      0.11008       0.47776       3.60474
                        -----------------------------------------
Magnitude (a.u.)       :      3.63793
Magnitude (Debye)      :      9.24689

Rotational constants in cm-1:     0.009523     0.003960     0.003642
Rotational constants in MHz :   285.489947   118.711836   109.171721

                             ****ORCA TERMINATED NORMALLY****
TOTAL RUN TIME: 0 days 0 hours 4 minutes 53 seconds 628 msec
