                         Program Version 4.2.1 -  RELEASE  -
|  1> ! DFT B3LYP 6-31g TightSCF Grid5 NoFinalGrid SlowConv
|  2> %pal
|  3> nprocs 16
|  4> end
|  5> %method SpecialGridAtoms 26
|  6> SpecialGridIntAcc 7
|  7> end
|  8> %basis NewGTO 26 "CP(PPP)" end
|  9> end
| 10> # [Fe(ll)(Cl)4]2-  s = 2
| 11> * xyz -2 5
| 12> Fe -0.005543 -0.010542  0.000078
| 13> Cl  2.340289 -0.142823  0.000187
| 14> Cl -0.915720  2.154368 -0.000255
| 15> Cl -0.709682 -1.000364 -2.005230
| 16> Cl -0.709344 -1.000639  2.005220
| 17> *
| 18> # Note that the EPR block needs to below the coordinate block for
| 19> # the “all Fe” command (all irons) to be recognized.
| 20> %eprnmr nuclei = all Fe {rho, fgrad}
| 21> end
| 22>
| 23>                          ****END OF INPUT****

CARTESIAN COORDINATES (ANGSTROEM)
---------------------------------
  Fe    -0.005543   -0.010542    0.000078
  Cl     2.340289   -0.142823    0.000187
  Cl    -0.915720    2.154368   -0.000255
  Cl    -0.709682   -1.000364   -2.005230
  Cl    -0.709344   -1.000639    2.005220

 Total Charge           Charge          ....   -2
 Multiplicity           Mult            ....    5
 Number of Electrons    NEL             ....   96
 Basis Dimension        Dim             ....  112

ORBITAL ENERGIES
----------------
                 SPIN UP ORBITALS
  NO   OCC          E(Eh)            E(eV)
   0   1.0000    -255.746964     -6959.2287
   1   1.0000    -101.158941     -2752.6747
   2   1.0000    -101.158923     -2752.6742
   3   1.0000    -101.157741     -2752.6421
   4   1.0000    -101.157549     -2752.6368
   5   1.0000     -29.720201      -808.7278
   6   1.0000     -25.587247      -696.2644
   7   1.0000     -25.586150      -696.2345
   8   1.0000     -25.556822      -695.4365
   9   1.0000      -9.090477      -247.3645
  10   1.0000      -9.090446      -247.3636
  11   1.0000      -9.089199      -247.3297
  12   1.0000      -9.089020      -247.3248
  13   1.0000      -6.849241      -186.3773
  14   1.0000      -6.849220      -186.3767
  15   1.0000      -6.847980      -186.3430
  16   1.0000      -6.847801      -186.3381
  17   1.0000      -6.846438      -186.3011
  18   1.0000      -6.846410      -186.3003
  19   1.0000      -6.846214      -186.2950
  20   1.0000      -6.846197      -186.2945
  21   1.0000      -6.845173      -186.2666
  22   1.0000      -6.844993      -186.2617
  23   1.0000      -6.844938      -186.2602
  24   1.0000      -6.844763      -186.2555
  25   1.0000      -3.221614       -87.6646
  26   1.0000      -2.020744       -54.9872
  27   1.0000      -2.018426       -54.9242
  28   1.0000      -1.958067       -53.2817
  29   1.0000      -0.450495       -12.2586
  30   1.0000      -0.444016       -12.0823
  31   1.0000      -0.442464       -12.0401
  32   1.0000      -0.441961       -12.0264
  33   1.0000      -0.074156        -2.0179
  34   1.0000      -0.059997        -1.6326
  35   1.0000      -0.054513        -1.4834
  36   1.0000      -0.053424        -1.4537
  37   1.0000      -0.048269        -1.3135
  38   1.0000      -0.009802        -0.2667
  39   1.0000      -0.001370        -0.0373
  40   1.0000      -0.001008        -0.0274
  41   1.0000       0.004563         0.1242
  42   1.0000       0.031608         0.8601
  43   1.0000       0.032031         0.8716
  44   1.0000       0.032681         0.8893
  45   1.0000       0.034029         0.9260
  46   1.0000       0.054853         1.4926
  47   1.0000       0.055532         1.5111
  48   1.0000       0.055735         1.5166
  49   1.0000       0.056050         1.5252
  50   0.0000       0.313588         8.5332
  51   0.0000       0.345236         9.3944
  52   0.0000       0.350045         9.5252
  53   0.0000       0.350816         9.5462
  54   0.0000       0.437307        11.8997

                 SPIN DOWN ORBITALS
  NO   OCC          E(Eh)            E(eV)
   0   1.0000    -255.746740     -6959.2226
   1   1.0000    -101.158403     -2752.6601
   2   1.0000    -101.158384     -2752.6596
   3   1.0000    -101.157206     -2752.6275
   4   1.0000    -101.157011     -2752.6222
   5   1.0000     -29.645036      -806.6824
   6   1.0000     -25.519765      -694.4281
   7   1.0000     -25.519268      -694.4146
   8   1.0000     -25.505624      -694.0433
   9   1.0000      -9.089951      -247.3501
  10   1.0000      -9.089919      -247.3493
  11   1.0000      -9.088674      -247.3154
  12   1.0000      -9.088494      -247.3105
  13   1.0000      -6.848396      -186.3543
  14   1.0000      -6.848375      -186.3537
  15   1.0000      -6.847123      -186.3197
  16   1.0000      -6.846938      -186.3147
  17   1.0000      -6.845640      -186.2793
  18   1.0000      -6.845633      -186.2792
  19   1.0000      -6.845618      -186.2787
  20   1.0000      -6.845609      -186.2785
  21   1.0000      -6.844380      -186.2450
  22   1.0000      -6.844377      -186.2450
  23   1.0000      -6.844199      -186.2401
  24   1.0000      -6.844197      -186.2401
  25   1.0000      -3.039626       -82.7124
  26   1.0000      -1.811046       -49.2811
  27   1.0000      -1.810750       -49.2730
  28   1.0000      -1.799313       -48.9618
  29   1.0000      -0.446801       -12.1581
  30   1.0000      -0.440190       -11.9782
  31   1.0000      -0.438652       -11.9363
  32   1.0000      -0.438092       -11.9211
  33   1.0000      -0.038898        -1.0585
  34   1.0000      -0.007545        -0.2053
  35   1.0000      -0.006317        -0.1719
  36   1.0000      -0.005694        -0.1550
  37   1.0000       0.010401         0.2830
  38   1.0000       0.010758         0.2927
  39   1.0000       0.014860         0.4044
  40   1.0000       0.015807         0.4301
  41   1.0000       0.016178         0.4402
  42   1.0000       0.035147         0.9564
  43   1.0000       0.035527         0.9667
  44   1.0000       0.037501         1.0204
  45   1.0000       0.119007         3.2384
  46   0.0000       0.259938         7.0733
  47   0.0000       0.267518         7.2795
  48   0.0000       0.295433         8.0391
  49   0.0000       0.296312         8.0631
  50   0.0000       0.317299         8.6341

MULLIKEN ATOMIC CHARGES AND SPIN POPULATIONS
--------------------------------------------
   0 Fe:    0.491034    3.800763
   1 Cl:   -0.624323    0.049529
   2 Cl:   -0.623797    0.049845
   3 Cl:   -0.621486    0.049927
   4 Cl:   -0.621428    0.049936
Sum of atomic charges         :   -2.0000000

LOEWDIN ATOMIC CHARGES AND SPIN POPULATIONS
-------------------------------------------
   0 Fe:   -0.125176    3.767217
   1 Cl:   -0.470666    0.057864
   2 Cl:   -0.470105    0.058173
   3 Cl:   -0.467065    0.058368
   4 Cl:   -0.466988    0.058378

  Mayer bond orders larger than 0.100000
B(  0-Fe,  1-Cl) :   0.6580 B(  0-Fe,  2-Cl) :   0.6588 B(  0-Fe,  3-Cl) :   0.6619
B(  0-Fe,  4-Cl) :   0.6620

FINAL SINGLE POINT ENERGY     -3104.405384397498

DIPOLE MOMENT
-------------
                                X             Y             Z
Electronic contribution:     -0.02812      -0.04915       0.00044
Nuclear contribution   :      0.00733       0.01394      -0.00010
                        -----------------------------------------
Total Dipole Moment    :     -0.02079      -0.03521       0.00034
                        -----------------------------------------
Magnitude (a.u.)       :      0.04089
Magnitude (Debye)      :      0.10393

Rotational constants in cm-1:     0.033997     0.033750     0.029753
Rotational constants in MHz :  1019.212481  1011.800376   891.974021

                             ****ORCA TERMINATED NORMALLY****
TOTAL RUN TIME: 0 days 0 hours 0 minutes 13 seconds 735 msec
