                         Program Version 4.2.1 -  RELEASE  -
|  1> ! DFT B3LYP 6-31g TightSCF Grid5 NoFinalGrid SlowConv
|  2> %pal
|  3> nprocs 16
|  4> end
|  5> %method SpecialGridAtoms 26
|  6> SpecialGridIntAcc 7
|  7> end
|  8> %basis NewGTO 26 "CP(PPP)" end
|  9> end
| 10> # [Fe(SME)]0 , s = 0 ,  m = 2s + 1
| 11> * xyz 0 1
| 12> Fe 0.002211 -0.515467 -0.057041
| 13> S 0.038176 -2.829800 -0.476282
| 14> C 1.705782 -3.569445 -0.202375
| 15> S -1.658817 -0.292437 -1.553521
| 16> S -1.558229 -0.674178 1.639733
| 17> S 1.609555 -0.358768 -1.743157
| 18> S 1.628638 -0.437710 1.474907
| 19> C -5.501108 0.020122 0.943413
| 20> C -5.569128 0.188902 -0.448715
| 21> C -4.398291 0.107417 -1.203267
| 22> C -3.172211 -0.119275 -0.564830
| 23> C -3.086050 -0.309090 0.827952
| 24> C -4.284682 -0.221819 1.571627
| 25> C 3.086004 0.047062 -0.842676
| 26> C 3.125224 0.030246 0.561783
| 27> C 4.280649 0.386089 -1.517541
| 28> C 5.440821 0.699391 -0.812977
| 29> C 5.455483 0.678770 0.590451
| 30> C 4.293395 0.324596 1.274902
| 31> C -1.252725 1.463143 -2.026972
| 32> C 1.141966 1.216466 2.186853
| 33> C 0.599742 2.086874 1.100027
| 34> C -0.631752 2.197487 -0.882733
| 35> N -0.031758 1.442201 0.076315
| 36> C -0.618567 3.590922 -0.850106
| 37> C 0.687340 3.476891 1.154912
| 38> C 0.063584 4.247188 0.175045
| 39> H -6.407448 0.064990 1.541506
| 40> H -6.524778 0.360394 -0.935244
| 41> H -4.435000 0.221124 -2.284266
| 42> H -4.240942 -0.349651 2.650285
| 43> H 4.285455 0.410510 -2.604316
| 44> H 6.337377 0.968235 -1.365965
| 45> H 6.353388 0.933202 1.146204
| 46> H 4.287896 0.285447 2.361752
| 47> H -2.134418 1.964910 -2.430121
| 48> H -0.514172 1.329982 -2.823785
| 49> H 1.983818 1.673642 2.709683
| 50> H 0.356480 0.966600 2.906403
| 51> H -1.121572 4.140964 -1.638556
| 52> H 1.218765 3.950336 1.974246
| 53> H 0.111624 5.331190 0.210626
| 54> H 1.984355 -3.498978 0.851066
| 55> C -0.903421 -3.860847 0.726223
| 56> H 2.391700 -2.991848 -0.822514
| 57> H 1.683679 -4.613242 -0.520410
| 58> H -0.489135 -3.730485 1.726783
| 59> H -0.837496 -4.903237 0.407316
| 60> H -1.939563 -3.525718 0.708967
| 61> *
| 62> # Note that the EPR block needs to below the coordinate block for
| 63> # the “all Fe” command (all irons) to be recognized.
| 64> %eprnmr nuclei = all Fe {rho, fgrad}
| 65> end
| 66>
| 67>                          ****END OF INPUT****

CARTESIAN COORDINATES (ANGSTROEM)
---------------------------------
  Fe     0.002211   -0.515467   -0.057041
  S      0.038176   -2.829800   -0.476282
  C      1.705782   -3.569445   -0.202375
  S     -1.658817   -0.292437   -1.553521
  S     -1.558229   -0.674178    1.639733
  S      1.609555   -0.358768   -1.743157
  S      1.628638   -0.437710    1.474907
  C     -5.501108    0.020122    0.943413
  C     -5.569128    0.188902   -0.448715
  C     -4.398291    0.107417   -1.203267
  C     -3.172211   -0.119275   -0.564830
  C     -3.086050   -0.309090    0.827952
  C     -4.284682   -0.221819    1.571627
  C      3.086004    0.047062   -0.842676
  C      3.125224    0.030246    0.561783
  C      4.280649    0.386089   -1.517541
  C      5.440821    0.699391   -0.812977
  C      5.455483    0.678770    0.590451
  C      4.293395    0.324596    1.274902
  C     -1.252725    1.463143   -2.026972
  C      1.141966    1.216466    2.186853
  C      0.599742    2.086874    1.100027
  C     -0.631752    2.197487   -0.882733
  N     -0.031758    1.442201    0.076315
  C     -0.618567    3.590922   -0.850106
  C      0.687340    3.476891    1.154912
  C      0.063584    4.247188    0.175045
  H     -6.407448    0.064990    1.541506
  H     -6.524778    0.360394   -0.935244
  H     -4.435000    0.221124   -2.284266
  H     -4.240942   -0.349651    2.650285
  H      4.285455    0.410510   -2.604316
  H      6.337377    0.968235   -1.365965
  H      6.353388    0.933202    1.146204
  H      4.287896    0.285447    2.361752
  H     -2.134418    1.964910   -2.430121
  H     -0.514172    1.329982   -2.823785
  H      1.983818    1.673642    2.709683
  H      0.356480    0.966600    2.906403
  H     -1.121572    4.140964   -1.638556
  H      1.218765    3.950336    1.974246
  H      0.111624    5.331190    0.210626
  H      1.984355   -3.498978    0.851066
  C     -0.903421   -3.860847    0.726223
  H      2.391700   -2.991848   -0.822514
  H      1.683679   -4.613242   -0.520410
  H     -0.489135   -3.730485    1.726783
  H     -0.837496   -4.903237    0.407316
  H     -1.939563   -3.525718    0.708967

 Total Charge           Charge          ....    0
 Multiplicity           Mult            ....    1
 Number of Electrons    NEL             ....  260
 Basis Dimension        Dim             ....  365

ORBITAL ENERGIES
----------------

  NO   OCC          E(Eh)            E(eV)
   0   2.0000    -255.994931     -6965.9762
   1   2.0000     -88.890777     -2418.8410
   2   2.0000     -88.886509     -2418.7249
   3   2.0000     -88.868335     -2418.2303
   4   2.0000     -88.793602     -2416.1968
   5   2.0000     -88.791808     -2416.1479
   6   2.0000     -29.940332      -814.7178
   7   2.0000     -25.804242      -702.1691
   8   2.0000     -25.803177      -702.1401
   9   2.0000     -25.800700      -702.0728
  10   2.0000     -14.380731      -391.3196
  11   2.0000     -10.255112      -279.0558
  12   2.0000     -10.254706      -279.0447
  13   2.0000     -10.227209      -278.2965
  14   2.0000     -10.226063      -278.2653
  15   2.0000     -10.221577      -278.1432
  16   2.0000     -10.214332      -277.9461
  17   2.0000     -10.214116      -277.9402
  18   2.0000     -10.208002      -277.7739
  19   2.0000     -10.207093      -277.7491
  20   2.0000     -10.205908      -277.7169
  21   2.0000     -10.205136      -277.6959
  22   2.0000     -10.197384      -277.4849
  23   2.0000     -10.193428      -277.3773
  24   2.0000     -10.188190      -277.2347
  25   2.0000     -10.185994      -277.1750
  26   2.0000     -10.180491      -277.0252
  27   2.0000     -10.177891      -276.9545
  28   2.0000     -10.176954      -276.9290
  29   2.0000     -10.174666      -276.8667
  30   2.0000     -10.173993      -276.8484
  31   2.0000     -10.171915      -276.7919
  32   2.0000      -7.968669      -216.8385
  33   2.0000      -7.964551      -216.7264
  34   2.0000      -7.947237      -216.2553
  35   2.0000      -7.871689      -214.1995
  36   2.0000      -7.870458      -214.1661
  37   2.0000      -5.932284      -161.4257
  38   2.0000      -5.928696      -161.3280
  39   2.0000      -5.928281      -161.3167
  40   2.0000      -5.924397      -161.2110
  41   2.0000      -5.922455      -161.1582
  42   2.0000      -5.918252      -161.0438
  43   2.0000      -5.910923      -160.8444
  44   2.0000      -5.907705      -160.7568
  45   2.0000      -5.900237      -160.5536
  46   2.0000      -5.836582      -158.8215
  47   2.0000      -5.835335      -158.7875
  48   2.0000      -5.829105      -158.6180
  49   2.0000      -5.827918      -158.5857
  50   2.0000      -5.827235      -158.5671
  51   2.0000      -5.825902      -158.5309
  52   2.0000      -3.371778       -91.7508
  53   2.0000      -2.149319       -58.4859
  54   2.0000      -2.144918       -58.3662
  55   2.0000      -2.139902       -58.2297
  56   2.0000      -0.987421       -26.8691
  57   2.0000      -0.867235       -23.5987
  58   2.0000      -0.862378       -23.4665
  59   2.0000      -0.841496       -22.8983
  60   2.0000      -0.831678       -22.6311
  61   2.0000      -0.810977       -22.0678
  62   2.0000      -0.805157       -21.9094
  63   2.0000      -0.783239       -21.3130
  64   2.0000      -0.759679       -20.6719
  65   2.0000      -0.757098       -20.6017
  66   2.0000      -0.744560       -20.2605
  67   2.0000      -0.729922       -19.8622
  68   2.0000      -0.701274       -19.0826
  69   2.0000      -0.691794       -18.8247
  70   2.0000      -0.675764       -18.3885
  71   2.0000      -0.660006       -17.9597
  72   2.0000      -0.651391       -17.7252
  73   2.0000      -0.630784       -17.1645
  74   2.0000      -0.628392       -17.0994
  75   2.0000      -0.606143       -16.4940
  76   2.0000      -0.589420       -16.0389
  77   2.0000      -0.586865       -15.9694
  78   2.0000      -0.567681       -15.4474
  79   2.0000      -0.561460       -15.2781
  80   2.0000      -0.534436       -14.5427
  81   2.0000      -0.517159       -14.0726
  82   2.0000      -0.499581       -13.5943
  83   2.0000      -0.486323       -13.2335
  84   2.0000      -0.482278       -13.1235
  85   2.0000      -0.474777       -12.9194
  86   2.0000      -0.462086       -12.5740
  87   2.0000      -0.455793       -12.4028
  88   2.0000      -0.451558       -12.2875
  89   2.0000      -0.445781       -12.1303
  90   2.0000      -0.445142       -12.1129
  91   2.0000      -0.441674       -12.0186
  92   2.0000      -0.439136       -11.9495
  93   2.0000      -0.435920       -11.8620
  94   2.0000      -0.434086       -11.8121
  95   2.0000      -0.423158       -11.5147
  96   2.0000      -0.418559       -11.3896
  97   2.0000      -0.410593       -11.1728
  98   2.0000      -0.406452       -11.0601
  99   2.0000      -0.393147       -10.6981
 100   2.0000      -0.391188       -10.6448
 101   2.0000      -0.390000       -10.6124
 102   2.0000      -0.387841       -10.5537
 103   2.0000      -0.384654       -10.4670
 104   2.0000      -0.370676       -10.0866
 105   2.0000      -0.365267        -9.9394
 106   2.0000      -0.360566        -9.8115
 107   2.0000      -0.350301        -9.5322
 108   2.0000      -0.344394        -9.3714
 109   2.0000      -0.336725        -9.1627
 110   2.0000      -0.335098        -9.1185
 111   2.0000      -0.322165        -8.7665
 112   2.0000      -0.319182        -8.6854
 113   2.0000      -0.313728        -8.5370
 114   2.0000      -0.309590        -8.4244
 115   2.0000      -0.297658        -8.0997
 116   2.0000      -0.278324        -7.5736
 117   2.0000      -0.272037        -7.4025
 118   2.0000      -0.269453        -7.3322
 119   2.0000      -0.268572        -7.3082
 120   2.0000      -0.250840        -6.8257
 121   2.0000      -0.243951        -6.6382
 122   2.0000      -0.239190        -6.5087
 123   2.0000      -0.237177        -6.4539
 124   2.0000      -0.213483        -5.8092
 125   2.0000      -0.204940        -5.5767
 126   2.0000      -0.194044        -5.2802
 127   2.0000      -0.190621        -5.1871
 128   2.0000      -0.174013        -4.7351
 129   2.0000      -0.153624        -4.1803
 130   0.0000      -0.048723        -1.3258
 131   0.0000      -0.030531        -0.8308
 132   0.0000      -0.007150        -0.1946
 133   0.0000      -0.004159        -0.1132
 134   0.0000       0.007696         0.2094

MULLIKEN ATOMIC CHARGES
-----------------------
   0 Fe:   -0.061181
   1 S :    0.392358
   2 C :   -0.656321
   3 S :    0.456827
   4 S :   -0.006389
   5 S :   -0.017456
   6 S :    0.435142
   7 C :   -0.109103
   8 C :   -0.137173
   9 C :   -0.099045
  10 C :   -0.304593
  11 C :   -0.242812
  12 C :   -0.130688
  13 C :   -0.239660
  14 C :   -0.313979
  15 C :   -0.134430
  16 C :   -0.109008
  17 C :   -0.136452
  18 C :   -0.099005
  19 C :   -0.583226
  20 C :   -0.570117
  21 C :    0.336606
  22 C :    0.343254
  23 N :   -0.531043
  24 C :   -0.114940
  25 C :   -0.117376
  26 C :   -0.122576
  27 H :    0.122586
  28 H :    0.120933
  29 H :    0.131138
  30 H :    0.135176
  31 H :    0.137444
  32 H :    0.123728
  33 H :    0.121768
  34 H :    0.129784
  35 H :    0.186529
  36 H :    0.249516
  37 H :    0.183940
  38 H :    0.250358
  39 H :    0.149714
  40 H :    0.149526
  41 H :    0.150438
  42 H :    0.187397
  43 C :   -0.637603
  44 H :    0.230772
  45 H :    0.173737
  46 H :    0.196232
  47 H :    0.163330
  48 H :    0.215940
Sum of atomic charges:    0.0000000

LOEWDIN ATOMIC CHARGES
----------------------
   0 Fe:   -1.078187
   1 S :    0.447148
   2 C :   -0.429149
   3 S :    0.540609
   4 S :    0.007063
   5 S :    0.002389
   6 S :    0.532587
   7 C :   -0.106380
   8 C :   -0.140037
   9 C :   -0.107702
  10 C :   -0.202842
  11 C :   -0.139778
  12 C :   -0.121931
  13 C :   -0.140144
  14 C :   -0.202533
  15 C :   -0.119930
  16 C :   -0.106426
  17 C :   -0.138570
  18 C :   -0.110642
  19 C :   -0.301919
  20 C :   -0.296875
  21 C :    0.078457
  22 C :    0.079980
  23 N :    0.002371
  24 C :   -0.120406
  25 C :   -0.120812
  26 C :   -0.076734
  27 H :    0.115917
  28 H :    0.115174
  29 H :    0.120377
  30 H :    0.125268
  31 H :    0.126319
  32 H :    0.116545
  33 H :    0.115448
  34 H :    0.119191
  35 H :    0.139032
  36 H :    0.172555
  37 H :    0.136516
  38 H :    0.172807
  39 H :    0.131600
  40 H :    0.131385
  41 H :    0.130312
  42 H :    0.130541
  43 C :   -0.427138
  44 H :    0.159942
  45 H :    0.128072
  46 H :    0.135707
  47 H :    0.122294
  48 H :    0.152528

  Mayer bond orders larger than 0.100000
B(  0-Fe,  1-S ) :   0.5643 B(  0-Fe,  3-S ) :   0.6470 B(  0-Fe,  4-S ) :   0.8169
B(  0-Fe,  5-S ) :   0.7826 B(  0-Fe,  6-S ) :   0.6488 B(  0-Fe, 23-N ) :   0.5430
B(  1-S ,  2-C ) :   0.8873 B(  1-S , 43-C ) :   0.8728 B(  2-C , 42-H ) :   0.9202
B(  2-C , 44-H ) :   0.9064 B(  2-C , 45-H ) :   0.9318 B(  3-S , 10-C ) :   0.9121
B(  3-S , 19-C ) :   0.8930 B(  4-S , 11-C ) :   1.0533 B(  5-S , 13-C ) :   1.0493
B(  6-S , 14-C ) :   0.9007 B(  6-S , 20-C ) :   0.8854 B(  7-C ,  8-C ) :   1.4025
B(  7-C , 12-C ) :   1.4803 B(  7-C , 27-H ) :   0.9337 B(  8-C ,  9-C ) :   1.4617
B(  8-C , 28-H ) :   0.9332 B(  9-C , 10-C ) :   1.3995 B(  9-C , 29-H ) :   0.9287
B( 10-C , 11-C ) :   1.3244 B( 11-C , 12-C ) :   1.3692 B( 12-C , 30-H ) :   0.9284
B( 13-C , 14-C ) :   1.3311 B( 13-C , 15-C ) :   1.3714 B( 14-C , 18-C ) :   1.4014
B( 15-C , 16-C ) :   1.4779 B( 15-C , 31-H ) :   0.9283 B( 16-C , 17-C ) :   1.4040
B( 16-C , 32-H ) :   0.9337 B( 17-C , 18-C ) :   1.4624 B( 17-C , 33-H ) :   0.9329
B( 18-C , 34-H ) :   0.9283 B( 19-C , 22-C ) :   0.8980 B( 19-C , 35-H ) :   0.9167
B( 19-C , 36-H ) :   0.8874 B( 20-C , 21-C ) :   0.9033 B( 20-C , 37-H ) :   0.9162
B( 20-C , 38-H ) :   0.8843 B( 21-C , 23-N ) :   1.1965 B( 21-C , 25-C ) :   1.4512
B( 22-C , 23-N ) :   1.2088 B( 22-C , 24-C ) :   1.4395 B( 24-C , 26-C ) :   1.4248
B( 24-C , 39-H ) :   0.9234 B( 25-C , 26-C ) :   1.4186 B( 25-C , 40-H ) :   0.9230
B( 26-C , 41-H ) :   0.9260 B( 43-C , 46-H ) :   0.9230 B( 43-C , 47-H ) :   0.9291
B( 43-C , 48-H ) :   0.9224

FINAL SINGLE POINT ENERGY     -4121.093557122875

DIPOLE MOMENT
-------------
                                X             Y             Z
Electronic contribution:     -1.70548       0.38732      -3.19900
Nuclear contribution   :      1.89358       1.18614       3.70599
                        -----------------------------------------
Total Dipole Moment    :      0.18810       1.57346       0.50700
                        -----------------------------------------
Magnitude (a.u.)       :      1.66379
Magnitude (Debye)      :      4.22902

Rotational constants in cm-1:     0.007572     0.003979     0.003353
Rotational constants in MHz :   226.988126   119.284921   100.518536

                             ****ORCA TERMINATED NORMALLY****
TOTAL RUN TIME: 0 days 0 hours 3 minutes 6 seconds 346 msec
