                         Program Version 4.2.1 -  RELEASE  -
|  1> ! DFT B3LYP def2-TZVPP TightSCF Grid5 NoFinalGrid SlowConv
|  2> %pal
|  3> nprocs 8
|  4> end
|  5> %method SpecialGridAtoms 26
|  6> SpecialGridIntAcc 7
|  7> end
|  8> %basis NewGTO 26 "CP(PPP)" end
|  9> end
| 10> * xyz -3 6
| 11> Fe 0.000010  0.000005 -0.000000
| 12> F  1.977708  0.000020 -0.000007
| 13> F -1.977772  0.000020  0.000008
| 14> F  0.000014  1.977718 -0.000001
| 15> F  0.000014 -1.977750 -0.000000
| 16> F  0.000005 -0.000007  1.977728
| 17> F  0.000021 -0.000006 -1.977728
| 18> *
| 19> # Note that the EPR block needs to below the coordinate block for the “all Fe” command (all irons) to be recognized.
| 20> %eprnmr nuclei = all Fe {rho, fgrad}
| 21> end
| 22>
| 23>                          ****END OF INPUT****

CARTESIAN COORDINATES (ANGSTROEM)
---------------------------------
  Fe     0.000010    0.000005   -0.000000
  F      1.977708    0.000020   -0.000007
  F     -1.977772    0.000020    0.000008
  F      0.000014    1.977718   -0.000001
  F      0.000014   -1.977750   -0.000000
  F      0.000005   -0.000007    1.977728
  F      0.000021   -0.000006   -1.977728

 Total Charge           Charge          ....   -3
 Multiplicity           Mult            ....    6
 Number of Electrons    NEL             ....   83
 Basis Dimension        Dim             ....  246

ORBITAL ENERGIES
----------------
                 SPIN UP ORBITALS
  NO   OCC          E(Eh)            E(eV)
   0   1.0000    -255.625743     -6955.9301
   1   1.0000     -29.626527      -806.1788
   2   1.0000     -25.479301      -693.3270
   3   1.0000     -25.479300      -693.3270
   4   1.0000     -25.479300      -693.3270
   5   1.0000     -24.034528      -654.0128
   6   1.0000     -24.034528      -654.0127
   7   1.0000     -24.034527      -654.0127
   8   1.0000     -24.034516      -654.0124
   9   1.0000     -24.034513      -654.0124
  10   1.0000     -24.034511      -654.0123
  11   1.0000      -3.119852       -84.8955
  12   1.0000      -1.893684       -51.5298
  13   1.0000      -1.893684       -51.5298
  14   1.0000      -1.893684       -51.5298
  15   1.0000      -0.532262       -14.4836
  16   1.0000      -0.519599       -14.1390
  17   1.0000      -0.519598       -14.1390
  18   1.0000      -0.519597       -14.1389
  19   1.0000      -0.518482       -14.1086
  20   1.0000      -0.518481       -14.1086
  21   1.0000       0.062307         1.6954
  22   1.0000       0.062308         1.6955
  23   1.0000       0.085343         2.3223
  24   1.0000       0.085343         2.3223
  25   1.0000       0.085343         2.3223
  26   1.0000       0.123326         3.3559
  27   1.0000       0.162092         4.4107
  28   1.0000       0.162092         4.4108
  29   1.0000       0.162093         4.4108
  30   1.0000       0.206775         5.6266
  31   1.0000       0.206775         5.6266
  32   1.0000       0.206775         5.6266
  33   1.0000       0.207036         5.6337
  34   1.0000       0.207036         5.6337
  35   1.0000       0.207036         5.6337
  36   1.0000       0.210004         5.7145
  37   1.0000       0.210004         5.7145
  38   1.0000       0.210005         5.7145
  39   1.0000       0.225124         6.1259
  40   1.0000       0.225124         6.1259
  41   1.0000       0.225125         6.1260
  42   1.0000       0.260903         7.0995
  43   1.0000       0.260904         7.0996
  44   0.0000       0.521280        14.1847
  45   0.0000       0.526515        14.3272
  46   0.0000       0.526515        14.3272
  47   0.0000       0.526516        14.3272
  48   0.0000       0.770370        20.9628

                 SPIN DOWN ORBITALS
  NO   OCC          E(Eh)            E(eV)
   0   1.0000    -255.625533     -6955.9244
   1   1.0000     -29.528165      -803.5022
   2   1.0000     -25.398297      -691.1228
   3   1.0000     -25.398297      -691.1228
   4   1.0000     -25.398297      -691.1228
   5   1.0000     -24.030345      -653.8989
   6   1.0000     -24.030345      -653.8989
   7   1.0000     -24.030345      -653.8989
   8   1.0000     -24.030333      -653.8986
   9   1.0000     -24.030330      -653.8985
  10   1.0000     -24.030329      -653.8985
  11   1.0000      -2.890600       -78.6572
  12   1.0000      -1.652034       -44.9541
  13   1.0000      -1.652034       -44.9541
  14   1.0000      -1.652034       -44.9541
  15   1.0000      -0.522578       -14.2201
  16   1.0000      -0.509620       -13.8675
  17   1.0000      -0.509620       -13.8675
  18   1.0000      -0.509619       -13.8674
  19   1.0000      -0.508147       -13.8274
  20   1.0000      -0.508146       -13.8273
  21   1.0000       0.139787         3.8038
  22   1.0000       0.165117         4.4930
  23   1.0000       0.165118         4.4931
  24   1.0000       0.176124         4.7926
  25   1.0000       0.176124         4.7926
  26   1.0000       0.176124         4.7926
  27   1.0000       0.178150         4.8477
  28   1.0000       0.178151         4.8477
  29   1.0000       0.178152         4.8478
  30   1.0000       0.217592         5.9210
  31   1.0000       0.217592         5.9210
  32   1.0000       0.217592         5.9210
  33   1.0000       0.218213         5.9379
  34   1.0000       0.218213         5.9379
  35   1.0000       0.218214         5.9379
  36   1.0000       0.233431         6.3520
  37   1.0000       0.233432         6.3520
  38   1.0000       0.233432         6.3520
  39   0.0000       0.453108        12.3297
  40   0.0000       0.453108        12.3297
  41   0.0000       0.453108        12.3297
  42   0.0000       0.495547        13.4845
  43   0.0000       0.495548        13.4846

MULLIKEN ATOMIC CHARGES AND SPIN POPULATIONS
--------------------------------------------
   0 Fe:    1.390549    4.439797
   1 F :   -0.731745    0.093376
   2 F :   -0.731775    0.093356
   3 F :   -0.731751    0.093372
   4 F :   -0.731766    0.093362
   5 F :   -0.731756    0.093368
   6 F :   -0.731756    0.093368
Sum of atomic charges         :   -3.0000000

LOEWDIN ATOMIC CHARGES AND SPIN POPULATIONS
-------------------------------------------
   0 Fe:    0.916843    4.395954
   1 F :   -0.652791    0.100684
   2 F :   -0.652828    0.100663
   3 F :   -0.652798    0.100679
   4 F :   -0.652816    0.100669
   5 F :   -0.652805    0.100675
   6 F :   -0.652805    0.100675

  Mayer bond orders larger than 0.100000
B(  0-Fe,  1-F ) :   0.4626 B(  0-Fe,  2-F ) :   0.4626 B(  0-Fe,  3-F ) :   0.4626
B(  0-Fe,  4-F ) :   0.4626 B(  0-Fe,  5-F ) :   0.4626 B(  0-Fe,  6-F ) :   0.4626

FINAL SINGLE POINT ENERGY     -1862.687390372685

DIPOLE MOMENT
-------------
                                X             Y             Z
Electronic contribution:      0.00016       0.00008      -0.00000
Nuclear contribution   :     -0.00001      -0.00000       0.00000
                        -----------------------------------------
Total Dipole Moment    :      0.00015       0.00008      -0.00000
                        -----------------------------------------
Magnitude (a.u.)       :      0.00017
Magnitude (Debye)      :      0.00044

Rotational constants in cm-1:     0.056715     0.056714     0.056714
Rotational constants in MHz :  1700.263074  1700.254657  1700.246200

                             ****ORCA TERMINATED NORMALLY****
TOTAL RUN TIME: 0 days 0 hours 0 minutes 31 seconds 877 msec
