                         Program Version 4.2.1 -  RELEASE  -
|  1> ! DFT B3LYP def2-TZVPP TightSCF Grid5 NoFinalGrid VerySlowConv
|  2> %pal
|  3> nprocs 8
|  4> end
|  5> %method SpecialGridAtoms 26
|  6> SpecialGridIntAcc 7
|  7> end
|  8> %basis NewGTO 26 "CP(PPP)" end
|  9> end
| 10> * xyz -4 1
| 11> Fe -0.000066 -0.000034 -0.000001
| 12> C   1.919852  0.000060  0.000058
| 13> C  -1.920009  0.000054 -0.000022
| 14> C   0.000032  1.920036 -0.000011
| 15> C   0.000066 -1.920127 -0.000032
| 16> C   0.000011 -0.000031  1.920227
| 17> C  -0.000053 -0.000053 -1.920225
| 18> N   3.102102  0.000123  0.000098
| 19> N  -3.102222  0.000156 -0.000029
| 20> N   0.000149  3.102259 -0.000003
| 21> N   0.000158 -3.102340 -0.000061
| 22> N   0.000058 -0.000023  3.102487
| 23> N  -0.000078 -0.000080 -3.102486
| 24> *
| 25> # Note that the EPR block needs to below the coordinate block for the “all Fe” command (all irons) to be recognized.
| 26> %eprnmr nuclei = all Fe {rho, fgrad}
| 27> end
| 28>
| 29>                          ****END OF INPUT****

CARTESIAN COORDINATES (ANGSTROEM)
---------------------------------
  Fe    -0.000066   -0.000034   -0.000001
  C      1.919852    0.000060    0.000058
  C     -1.920009    0.000054   -0.000022
  C      0.000032    1.920036   -0.000011
  C      0.000066   -1.920127   -0.000032
  C      0.000011   -0.000031    1.920227
  C     -0.000053   -0.000053   -1.920225
  N      3.102102    0.000123    0.000098
  N     -3.102222    0.000156   -0.000029
  N      0.000149    3.102259   -0.000003
  N      0.000158   -3.102340   -0.000061
  N      0.000058   -0.000023    3.102487
  N     -0.000078   -0.000080   -3.102486

 Total Charge           Charge          ....   -4
 Multiplicity           Mult            ....    1
 Number of Electrons    NEL             ....  108
 Basis Dimension        Dim             ....  432

ORBITAL ENERGIES
----------------

  NO   OCC          E(Eh)            E(eV)
   0   2.0000    -255.473956     -6951.7998
   1   2.0000     -29.434859      -800.9632
   2   2.0000     -25.295692      -688.3308
   3   2.0000     -25.295691      -688.3307
   4   2.0000     -25.295690      -688.3307
   5   2.0000     -13.722505      -373.4083
   6   2.0000     -13.722504      -373.4083
   7   2.0000     -13.722485      -373.4078
   8   2.0000     -13.722484      -373.4078
   9   2.0000     -13.722475      -373.4075
  10   2.0000     -13.722472      -373.4075
  11   2.0000      -9.617869      -261.7155
  12   2.0000      -9.617864      -261.7154
  13   2.0000      -9.617845      -261.7149
  14   2.0000      -9.617839      -261.7147
  15   2.0000      -9.617838      -261.7147
  16   2.0000      -9.617828      -261.7144
  17   2.0000      -2.848225       -77.5042
  18   2.0000      -1.619355       -44.0649
  19   2.0000      -1.619352       -44.0648
  20   2.0000      -1.619350       -44.0648
  21   2.0000      -0.312996        -8.5170
  22   2.0000      -0.309126        -8.4118
  23   2.0000      -0.309120        -8.4116
  24   2.0000      -0.309110        -8.4113
  25   2.0000      -0.307686        -8.3726
  26   2.0000      -0.307676        -8.3723
  27   2.0000       0.048013         1.3065
  28   2.0000       0.129185         3.5153
  29   2.0000       0.129198         3.5157
  30   2.0000       0.129204         3.5158
  31   2.0000       0.136842         3.7236
  32   2.0000       0.136845         3.7238
  33   2.0000       0.194910         5.3038
  34   2.0000       0.202753         5.5172
  35   2.0000       0.202760         5.5174
  36   2.0000       0.202761         5.5174
  37   2.0000       0.209027         5.6879
  38   2.0000       0.209032         5.6881
  39   2.0000       0.209038         5.6882
  40   2.0000       0.219560         5.9745
  41   2.0000       0.219570         5.9748
  42   2.0000       0.239893         6.5278
  43   2.0000       0.239900         6.5280
  44   2.0000       0.239901         6.5280
  45   2.0000       0.252096         6.8599
  46   2.0000       0.252105         6.8601
  47   2.0000       0.252107         6.8602
  48   2.0000       0.268362         7.3025
  49   2.0000       0.268365         7.3026
  50   2.0000       0.268367         7.3026
  51   2.0000       0.343838         9.3563
  52   2.0000       0.343840         9.3564
  53   2.0000       0.343841         9.3564
  54   0.0000       0.525448        14.2982
  55   0.0000       0.530291        14.4300
  56   0.0000       0.530293        14.4300
  57   0.0000       0.530294        14.4300
  58   0.0000       0.592876        16.1330

MULLIKEN ATOMIC CHARGES
-----------------------
   0 Fe:   -0.325394
   1 C :   -0.219933
   2 C :   -0.220082
   3 C :   -0.220045
   4 C :   -0.220110
   5 C :   -0.220017
   6 C :   -0.220018
   7 N :   -0.392504
   8 N :   -0.392387
   9 N :   -0.392375
  10 N :   -0.392329
  11 N :   -0.392401
  12 N :   -0.392405
Sum of atomic charges:   -4.0000000

LOEWDIN ATOMIC CHARGES
----------------------
   0 Fe:   -0.110198
   1 C :   -0.356887
   2 C :   -0.356919
   3 C :   -0.356857
   4 C :   -0.356866
   5 C :   -0.356789
   6 C :   -0.356790
   7 N :   -0.291458
   8 N :   -0.291439
   9 N :   -0.291432
  10 N :   -0.291431
  11 N :   -0.291466
  12 N :   -0.291467

  Mayer bond orders larger than 0.100000
B(  0-Fe,  1-C ) :   0.8977 B(  0-Fe,  2-C ) :   0.8978 B(  0-Fe,  3-C ) :   0.8977
B(  0-Fe,  4-C ) :   0.8977 B(  0-Fe,  5-C ) :   0.8976 B(  0-Fe,  6-C ) :   0.8976
B(  0-Fe,  7-N ) :   0.1662 B(  0-Fe,  8-N ) :   0.1661 B(  0-Fe,  9-N ) :   0.1661
B(  0-Fe, 10-N ) :   0.1661 B(  0-Fe, 11-N ) :   0.1660 B(  0-Fe, 12-N ) :   0.1661
B(  1-C ,  7-N ) :   2.7962 B(  2-C ,  8-N ) :   2.7963 B(  3-C ,  9-N ) :   2.7963
B(  4-C , 10-N ) :   2.7963 B(  5-C , 11-N ) :   2.7963 B(  6-C , 12-N ) :   2.7963

FINAL SINGLE POINT ENERGY     -1820.276502607715

DIPOLE MOMENT
-------------
                                X             Y             Z
Electronic contribution:     -0.00037      -0.00018      -0.00001
Nuclear contribution   :      0.00019       0.00010       0.00000
                        -----------------------------------------
Total Dipole Moment    :     -0.00018      -0.00008      -0.00000
                        -----------------------------------------
Magnitude (a.u.)       :      0.00020
Magnitude (Debye)      :      0.00050

Rotational constants in cm-1:     0.023534     0.023532     0.023531
Rotational constants in MHz :   705.530186   705.481635   705.441925

                             ****ORCA TERMINATED NORMALLY****
TOTAL RUN TIME: 0 days 0 hours 8 minutes 59 seconds 839 msec
