                         Program Version 4.2.1 -  RELEASE  -
|  1> ! DFT B3LYP 6-31g TightSCF Grid5 NoFinalGrid SlowConv
|  2> %pal
|  3> nprocs 16
|  4> end
|  5> %method SpecialGridAtoms 26
|  6> SpecialGridIntAcc 7
|  7> end
|  8> %basis NewGTO 26 "CP(PPP)" end
|  9> end
| 10> # [Fe(lll)(F)6]3- , s = 5/2 ,  m = 2s + 1
| 11> * xyz -3 6
| 12> Fe 0.000010  0.000005 -0.000000
| 13> F  1.977708  0.000020 -0.000007
| 14> F -1.977772  0.000020  0.000008
| 15> F  0.000014  1.977718 -0.000001
| 16> F  0.000014 -1.977750 -0.000000
| 17> F  0.000005 -0.000007  1.977728
| 18> F  0.000021 -0.000006 -1.977728
| 19> *
| 20> # Note that the EPR block needs to below the coordinate block for
| 21> # the “all Fe” command (all irons) to be recognized.
| 22> %eprnmr nuclei = all Fe {rho, fgrad}
| 23> end
| 24>
| 25>                          ****END OF INPUT****

CARTESIAN COORDINATES (ANGSTROEM)
---------------------------------
  Fe     0.000010    0.000005   -0.000000
  F      1.977708    0.000020   -0.000007
  F     -1.977772    0.000020    0.000008
  F      0.000014    1.977718   -0.000001
  F      0.000014   -1.977750   -0.000000
  F      0.000005   -0.000007    1.977728
  F      0.000021   -0.000006   -1.977728

 Total Charge           Charge          ....   -3
 Multiplicity           Mult            ....    6
 Number of Electrons    NEL             ....   83
 Basis Dimension        Dim             ....  114

ORBITAL ENERGIES
----------------
                 SPIN UP ORBITALS
  NO   OCC          E(Eh)            E(eV)
   0   1.0000    -255.574492     -6954.5355
   1   1.0000     -29.575030      -804.7775
   2   1.0000     -25.427864      -691.9274
   3   1.0000     -25.427864      -691.9274
   4   1.0000     -25.427864      -691.9274
   5   1.0000     -24.011077      -653.3746
   6   1.0000     -24.011021      -653.3731
   7   1.0000     -24.011021      -653.3731
   8   1.0000     -24.011020      -653.3731
   9   1.0000     -24.010966      -653.3716
  10   1.0000     -24.010965      -653.3716
  11   1.0000      -3.069619       -83.5286
  12   1.0000      -1.843760       -50.1713
  13   1.0000      -1.843760       -50.1713
  14   1.0000      -1.843760       -50.1713
  15   1.0000      -0.488615       -13.2959
  16   1.0000      -0.475733       -12.9453
  17   1.0000      -0.475732       -12.9453
  18   1.0000      -0.475731       -12.9453
  19   1.0000      -0.474307       -12.9065
  20   1.0000      -0.474306       -12.9065
  21   1.0000       0.110490         3.0066
  22   1.0000       0.110491         3.0066
  23   1.0000       0.134285         3.6541
  24   1.0000       0.134285         3.6541
  25   1.0000       0.134285         3.6541
  26   1.0000       0.167156         4.5486
  27   1.0000       0.209014         5.6876
  28   1.0000       0.209015         5.6876
  29   1.0000       0.209015         5.6876
  30   1.0000       0.250170         6.8075
  31   1.0000       0.250171         6.8075
  32   1.0000       0.250171         6.8075
  33   1.0000       0.259473         7.0606
  34   1.0000       0.259474         7.0606
  35   1.0000       0.259474         7.0607
  36   1.0000       0.260106         7.0778
  37   1.0000       0.260106         7.0778
  38   1.0000       0.260106         7.0778
  39   1.0000       0.272645         7.4191
  40   1.0000       0.272646         7.4191
  41   1.0000       0.272646         7.4191
  42   1.0000       0.311315         8.4713
  43   1.0000       0.311316         8.4713
  44   0.0000       0.547160        14.8890
  45   0.0000       0.550257        14.9733
  46   0.0000       0.550258        14.9733
  47   0.0000       0.550258        14.9733
  48   0.0000       0.811693        22.0873

                 SPIN DOWN ORBITALS
  NO   OCC          E(Eh)            E(eV)
   0   1.0000    -255.574296     -6954.5301
   1   1.0000     -29.477541      -802.1247
   2   1.0000     -25.347577      -689.7426
   3   1.0000     -25.347577      -689.7426
   4   1.0000     -25.347577      -689.7426
   5   1.0000     -24.006739      -653.2566
   6   1.0000     -24.006685      -653.2551
   7   1.0000     -24.006684      -653.2551
   8   1.0000     -24.006683      -653.2551
   9   1.0000     -24.006630      -653.2536
  10   1.0000     -24.006629      -653.2536
  11   1.0000      -2.842212       -77.3405
  12   1.0000      -1.604136       -43.6508
  13   1.0000      -1.604136       -43.6508
  14   1.0000      -1.604136       -43.6507
  15   1.0000      -0.478462       -13.0196
  16   1.0000      -0.465226       -12.6595
  17   1.0000      -0.465226       -12.6594
  18   1.0000      -0.465225       -12.6594
  19   1.0000      -0.463431       -12.6106
  20   1.0000      -0.463430       -12.6106
  21   1.0000       0.184566         5.0223
  22   1.0000       0.213955         5.8220
  23   1.0000       0.213957         5.8221
  24   1.0000       0.224112         6.0984
  25   1.0000       0.224112         6.0984
  26   1.0000       0.224112         6.0984
  27   1.0000       0.231861         6.3093
  28   1.0000       0.231862         6.3093
  29   1.0000       0.231862         6.3093
  30   1.0000       0.261352         7.1117
  31   1.0000       0.261352         7.1118
  32   1.0000       0.261352         7.1118
  33   1.0000       0.268412         7.3039
  34   1.0000       0.268412         7.3039
  35   1.0000       0.268413         7.3039
  36   1.0000       0.281524         7.6607
  37   1.0000       0.281524         7.6607
  38   1.0000       0.281525         7.6607
  39   0.0000       0.499464        13.5911
  40   0.0000       0.499464        13.5911
  41   0.0000       0.499464        13.5911
  42   0.0000       0.544879        14.8269
  43   0.0000       0.544881        14.8270

MULLIKEN ATOMIC CHARGES AND SPIN POPULATIONS
--------------------------------------------
   0 Fe:    0.661243    4.359199
   1 F :   -0.610199    0.106808
   2 F :   -0.610218    0.106790
   3 F :   -0.610202    0.106805
   4 F :   -0.610212    0.106796
   5 F :   -0.610206    0.106801
   6 F :   -0.610206    0.106801
Sum of atomic charges         :   -3.0000000

LOEWDIN ATOMIC CHARGES AND SPIN POPULATIONS
-------------------------------------------
   0 Fe:    0.051392    4.345668
   1 F :   -0.508548    0.109064
   2 F :   -0.508589    0.109045
   3 F :   -0.508555    0.109060
   4 F :   -0.508576    0.109051
   5 F :   -0.508563    0.109056
   6 F :   -0.508563    0.109056

  Mayer bond orders larger than 0.100000
B(  0-Fe,  1-F ) :   0.6710 B(  0-Fe,  2-F ) :   0.6710 B(  0-Fe,  3-F ) :   0.6710
B(  0-Fe,  4-F ) :   0.6710 B(  0-Fe,  5-F ) :   0.6710 B(  0-Fe,  6-F ) :   0.6710

FINAL SINGLE POINT ENERGY     -1862.269295445139

DIPOLE MOMENT
-------------
                                X             Y             Z
Electronic contribution:      0.00012       0.00006      -0.00000
Nuclear contribution   :     -0.00001      -0.00000       0.00000
                        -----------------------------------------
Total Dipole Moment    :      0.00012       0.00006      -0.00000
                        -----------------------------------------
Magnitude (a.u.)       :      0.00013
Magnitude (Debye)      :      0.00033

Rotational constants in cm-1:     0.056715     0.056714     0.056714
Rotational constants in MHz :  1700.263074  1700.254657  1700.246200

                             ****ORCA TERMINATED NORMALLY****
TOTAL RUN TIME: 0 days 0 hours 0 minutes 9 seconds 144 msec
