                         Program Version 4.2.1 -  RELEASE  -
|  1> ! DFT B3LYP def2-TZVPP TightSCF Grid5 NoFinalGrid SlowConv
|  2> %pal
|  3> nprocs 8
|  4> end
|  5> %method SpecialGridAtoms 26
|  6> SpecialGridIntAcc 7
|  7> end
|  8> %basis NewGTO 26 "CP(PPP)" end
|  9> end
| 10> * xyz 3 6
| 11> Fe -0.000411 -0.000246 -0.000775
| 12> O  -0.167444  1.039129  1.718988
| 13> H   0.366677  1.821113  1.953619
| 14> O  -1.202644  1.288334 -0.980811
| 15> H  -1.651846  2.054751 -0.579763
| 16> O  -1.605608 -1.105693  0.509300
| 17> H  -2.530881 -0.892003  0.288257
| 18> O   0.168539 -1.041049 -1.719384
| 19> H   0.865752 -0.926020 -2.391147
| 20> O   1.201001 -1.287151  0.983345
| 21> H   1.461288 -1.224386  1.921214
| 22> O   1.604203  1.105655 -0.512009
| 23> H   2.529380  0.891372 -0.291077
| 24> H  -1.462647  1.230426 -1.919134
| 25> H   1.597565  1.901203 -1.075919
| 26> H  -0.863921  0.926491  2.391934
| 27> H   1.650092 -2.055598  0.586009
| 28> H  -0.365028 -1.822453 -1.957149
| 29> H  -1.598574 -1.900879  1.073614
| 30> *
| 31> # Note that the EPR block needs to below the coordinate block for the “all Fe” command (all irons) to be recognized.
| 32> %eprnmr nuclei = all Fe {rho, fgrad}
| 33> end
| 34>
| 35>                          ****END OF INPUT****

CARTESIAN COORDINATES (ANGSTROEM)
---------------------------------
  Fe    -0.000411   -0.000246   -0.000775
  O     -0.167444    1.039129    1.718988
  H      0.366677    1.821113    1.953619
  O     -1.202644    1.288334   -0.980811
  H     -1.651846    2.054751   -0.579763
  O     -1.605608   -1.105693    0.509300
  H     -2.530881   -0.892003    0.288257
  O      0.168539   -1.041049   -1.719384
  H      0.865752   -0.926020   -2.391147
  O      1.201001   -1.287151    0.983345
  H      1.461288   -1.224386    1.921214
  O      1.604203    1.105655   -0.512009
  H      2.529380    0.891372   -0.291077
  H     -1.462647    1.230426   -1.919134
  H      1.597565    1.901203   -1.075919
  H     -0.863921    0.926491    2.391934
  H      1.650092   -2.055598    0.586009
  H     -0.365028   -1.822453   -1.957149
  H     -1.598574   -1.900879    1.073614

 Total Charge           Charge          ....    3
 Multiplicity           Mult            ....    6
 Number of Electrons    NEL             ....   83
 Basis Dimension        Dim             ....  414

ORBITAL ENERGIES
----------------
                 SPIN UP ORBITALS
  NO   OCC          E(Eh)            E(eV)
   0   1.0000    -256.750400     -6986.5336
   1   1.0000     -30.751787      -836.7987
   2   1.0000     -26.604585      -723.9476
   3   1.0000     -26.604500      -723.9453
   4   1.0000     -26.604429      -723.9433
   5   1.0000     -19.684045      -535.6301
   6   1.0000     -19.683961      -535.6278
   7   1.0000     -19.683850      -535.6248
   8   1.0000     -19.683839      -535.6245
   9   1.0000     -19.683673      -535.6200
  10   1.0000     -19.683576      -535.6173
  11   1.0000      -4.244205      -115.4907
  12   1.0000      -3.018114       -82.1270
  13   1.0000      -3.017984       -82.1235
  14   1.0000      -3.017780       -82.1180
  15   1.0000      -1.570885       -42.7460
  16   1.0000      -1.559710       -42.4419
  17   1.0000      -1.559532       -42.4370
  18   1.0000      -1.558606       -42.4118
  19   1.0000      -1.557433       -42.3799
  20   1.0000      -1.557128       -42.3716
  21   1.0000      -1.087738       -29.5989
  22   1.0000      -1.086518       -29.5656
  23   1.0000      -1.085775       -29.5454
  24   1.0000      -1.082890       -29.4669
  25   1.0000      -1.082012       -29.4430
  26   1.0000      -1.077706       -29.3259
  27   1.0000      -1.077489       -29.3200
  28   1.0000      -1.077347       -29.3161
  29   1.0000      -1.050095       -28.5745
  30   1.0000      -1.015160       -27.6239
  31   1.0000      -1.014998       -27.6195
  32   1.0000      -1.014123       -27.5957
  33   1.0000      -0.990123       -26.9426
  34   1.0000      -0.988305       -26.8931
  35   1.0000      -0.985085       -26.8055
  36   1.0000      -0.876873       -23.8609
  37   1.0000      -0.876186       -23.8422
  38   1.0000      -0.875630       -23.8271
  39   1.0000      -0.873842       -23.7785
  40   1.0000      -0.873022       -23.7561
  41   1.0000      -0.867611       -23.6089
  42   1.0000      -0.866852       -23.5882
  43   1.0000      -0.865230       -23.5441
  44   0.0000      -0.483477       -13.1561
  45   0.0000      -0.432198       -11.7607
  46   0.0000      -0.430405       -11.7119
  47   0.0000      -0.429727       -11.6935
  48   0.0000      -0.389984       -10.6120

                 SPIN DOWN ORBITALS
  NO   OCC          E(Eh)            E(eV)
   0   1.0000    -256.750175     -6986.5274
   1   1.0000     -30.654484      -834.1509
   2   1.0000     -26.524461      -721.7673
   3   1.0000     -26.524349      -721.7642
   4   1.0000     -26.524310      -721.7632
   5   1.0000     -19.680386      -535.5305
   6   1.0000     -19.680298      -535.5281
   7   1.0000     -19.680192      -535.5252
   8   1.0000     -19.680186      -535.5251
   9   1.0000     -19.680012      -535.5204
  10   1.0000     -19.679916      -535.5177
  11   1.0000      -4.017260      -109.3152
  12   1.0000      -2.778884       -75.6173
  13   1.0000      -2.778643       -75.6107
  14   1.0000      -2.778498       -75.6068
  15   1.0000      -1.563419       -42.5428
  16   1.0000      -1.552178       -42.2369
  17   1.0000      -1.552000       -42.2321
  18   1.0000      -1.551085       -42.2072
  19   1.0000      -1.549512       -42.1644
  20   1.0000      -1.549212       -42.1562
  21   1.0000      -1.076325       -29.2883
  22   1.0000      -1.075104       -29.2551
  23   1.0000      -1.074810       -29.2471
  24   1.0000      -1.074185       -29.2300
  25   1.0000      -1.073981       -29.2245
  26   1.0000      -1.073838       -29.2206
  27   1.0000      -1.036775       -28.2121
  28   1.0000      -0.994554       -27.0632
  29   1.0000      -0.993810       -27.0429
  30   1.0000      -0.977297       -26.5936
  31   1.0000      -0.975346       -26.5405
  32   1.0000      -0.971924       -26.4474
  33   1.0000      -0.874729       -23.8026
  34   1.0000      -0.873744       -23.7758
  35   1.0000      -0.871964       -23.7273
  36   1.0000      -0.863562       -23.4987
  37   1.0000      -0.860947       -23.4276
  38   1.0000      -0.859986       -23.4014
  39   0.0000      -0.682477       -18.5711
  40   0.0000      -0.682180       -18.5631
  41   0.0000      -0.681839       -18.5538
  42   0.0000      -0.629986       -17.1428
  43   0.0000      -0.629704       -17.1351

MULLIKEN ATOMIC CHARGES AND SPIN POPULATIONS
--------------------------------------------
   0 Fe:    0.941710    4.429544
   1 O :   -0.329118    0.082814
   2 H :    0.336682    0.005921
   3 O :   -0.328625    0.083003
   4 H :    0.333699    0.005800
   5 O :   -0.327900    0.083016
   6 H :    0.335355    0.006062
   7 O :   -0.328628    0.083011
   8 H :    0.334914    0.006138
   9 O :   -0.328700    0.083010
  10 H :    0.337986    0.006294
  11 O :   -0.328241    0.082870
  12 H :    0.335384    0.006050
  13 H :    0.338063    0.006316
  14 H :    0.335969    0.006124
  15 H :    0.335098    0.006170
  16 H :    0.333760    0.005799
  17 H :    0.336751    0.005948
  18 H :    0.335841    0.006109
Sum of atomic charges         :    3.0000000

LOEWDIN ATOMIC CHARGES AND SPIN POPULATIONS
-------------------------------------------
   0 Fe:    1.149949    4.356864
   1 O :    0.358875    0.089552
   2 H :   -0.024748    0.008620
   3 O :    0.359321    0.089741
   4 H :   -0.026951    0.008605
   5 O :    0.359418    0.089811
   6 H :   -0.025824    0.008715
   7 O :    0.358912    0.089726
   8 H :   -0.025987    0.008788
   9 O :    0.359271    0.089733
  10 H :   -0.024350    0.008878
  11 O :    0.359276    0.089691
  12 H :   -0.025858    0.008696
  13 H :   -0.024139    0.008896
  14 H :   -0.024866    0.008811
  15 H :   -0.025910    0.008800
  16 H :   -0.026857    0.008610
  17 H :   -0.024543    0.008657
  18 H :   -0.024990    0.008809

  Mayer bond orders larger than 0.100000
B(  0-Fe,  1-O ) :   0.5247 B(  0-Fe,  3-O ) :   0.5255 B(  0-Fe,  5-O ) :   0.5249
B(  0-Fe,  7-O ) :   0.5256 B(  0-Fe,  9-O ) :   0.5254 B(  0-Fe, 11-O ) :   0.5246
B(  1-O ,  2-H ) :   0.9033 B(  1-O , 15-H ) :   0.9050 B(  3-O ,  4-H ) :   0.9061
B(  3-O , 13-H ) :   0.9024 B(  5-O ,  6-H ) :   0.9045 B(  5-O , 18-H ) :   0.9044
B(  7-O ,  8-H ) :   0.9052 B(  7-O , 17-H ) :   0.9033 B(  9-O , 10-H ) :   0.9024
B(  9-O , 16-H ) :   0.9061 B( 11-O , 12-H ) :   0.9044 B( 11-O , 14-H ) :   0.9042

FINAL SINGLE POINT ENERGY     -1721.183011717551

DIPOLE MOMENT
-------------
                                X             Y             Z
Electronic contribution:     -0.00166      -0.00243      -0.00599
Nuclear contribution   :      0.00210       0.00569       0.00566
                        -----------------------------------------
Total Dipole Moment    :      0.00044       0.00326      -0.00033
                        -----------------------------------------
Magnitude (a.u.)       :      0.00330
Magnitude (Debye)      :      0.00840

Rotational constants in cm-1:     0.053715     0.052828     0.052032
Rotational constants in MHz :  1610.325129  1583.730332  1559.895059

                             ****ORCA TERMINATED NORMALLY****
TOTAL RUN TIME: 0 days 0 hours 2 minutes 42 seconds 1 msec
