                         Program Version 4.2.1 -  RELEASE  -
|  1> ! DFT B3LYP 6-31g TightSCF Grid5 NoFinalGrid SlowConv
|  2> %pal
|  3> nprocs 16
|  4> end
|  5> %method SpecialGridAtoms 26
|  6> SpecialGridIntAcc 7
|  7> end
|  8> %basis NewGTO 26 "CP(PPP)" end
|  9> end
| 10> # [Fe(lll)(Cl)4]1-  s = 5/2
| 11> * xyz -1 6
| 12> Fe  0.002291  0.001525 -0.000013
| 13> Cl  2.234628 -0.003950  0.000015
| 14> Cl -0.749004  2.103068  0.000006
| 15> Cl -0.743967 -1.050327 -1.821818
| 16> Cl -0.743948 -1.050316  1.821811
| 17> *
| 18> # Note that the EPR block needs to below the coordinate block for
| 19> # the “all Fe” command (all irons) to be recognized.
| 20> %eprnmr nuclei = all Fe {rho, fgrad}
| 21> end
| 22>
| 23>                          ****END OF INPUT****

CARTESIAN COORDINATES (ANGSTROEM)
---------------------------------
  Fe     0.002291    0.001525   -0.000013
  Cl     2.234628   -0.003950    0.000015
  Cl    -0.749004    2.103068    0.000006
  Cl    -0.743967   -1.050327   -1.821818
  Cl    -0.743948   -1.050316    1.821811

 Total Charge           Charge          ....   -1
 Multiplicity           Mult            ....    6
 Number of Electrons    NEL             ....   95
 Basis Dimension        Dim             ....  112

ORBITAL ENERGIES
----------------
                 SPIN UP ORBITALS
  NO   OCC          E(Eh)            E(eV)
   0   1.0000    -256.044783     -6967.3327
   1   1.0000    -101.353987     -2757.9822
   2   1.0000    -101.353965     -2757.9816
   3   1.0000    -101.353856     -2757.9786
   4   1.0000    -101.353848     -2757.9784
   5   1.0000     -30.036858      -817.3444
   6   1.0000     -25.891016      -704.5304
   7   1.0000     -25.891000      -704.5299
   8   1.0000     -25.890986      -704.5296
   9   1.0000      -9.287364      -252.7220
  10   1.0000      -9.287335      -252.7212
  11   1.0000      -9.287234      -252.7185
  12   1.0000      -9.287215      -252.7180
  13   1.0000      -7.046979      -191.7580
  14   1.0000      -7.046958      -191.7575
  15   1.0000      -7.046861      -191.7548
  16   1.0000      -7.046837      -191.7542
  17   1.0000      -7.042833      -191.6452
  18   1.0000      -7.042833      -191.6452
  19   1.0000      -7.042818      -191.6448
  20   1.0000      -7.042812      -191.6446
  21   1.0000      -7.042712      -191.6419
  22   1.0000      -7.042706      -191.6418
  23   1.0000      -7.042690      -191.6413
  24   1.0000      -7.042688      -191.6413
  25   1.0000      -3.529671       -96.0472
  26   1.0000      -2.304967       -62.7213
  27   1.0000      -2.304938       -62.7205
  28   1.0000      -2.304927       -62.7203
  29   1.0000      -0.657768       -17.8988
  30   1.0000      -0.646965       -17.6048
  31   1.0000      -0.646865       -17.6021
  32   1.0000      -0.646830       -17.6011
  33   1.0000      -0.331362        -9.0168
  34   1.0000      -0.331338        -9.0162
  35   1.0000      -0.331327        -9.0159
  36   1.0000      -0.326772        -8.8919
  37   1.0000      -0.326759        -8.8916
  38   1.0000      -0.255460        -6.9514
  39   1.0000      -0.201433        -5.4813
  40   1.0000      -0.201298        -5.4776
  41   1.0000      -0.201243        -5.4761
  42   1.0000      -0.164554        -4.4778
  43   1.0000      -0.164494        -4.4761
  44   1.0000      -0.157386        -4.2827
  45   1.0000      -0.157275        -4.2797
  46   1.0000      -0.157234        -4.2786
  47   1.0000      -0.147759        -4.0207
  48   1.0000      -0.147623        -4.0170
  49   1.0000      -0.147546        -4.0149
  50   0.0000       0.157059         4.2738
  51   0.0000       0.200950         5.4681
  52   0.0000       0.200979         5.4689
  53   0.0000       0.201215         5.4754
  54   0.0000       0.269385         7.3303

                 SPIN DOWN ORBITALS
  NO   OCC          E(Eh)            E(eV)
   0   1.0000    -256.044357     -6967.3212
   1   1.0000    -101.352067     -2757.9299
   2   1.0000    -101.352040     -2757.9292
   3   1.0000    -101.351929     -2757.9262
   4   1.0000    -101.351920     -2757.9260
   5   1.0000     -29.949360      -814.9635
   6   1.0000     -25.818836      -702.5663
   7   1.0000     -25.818826      -702.5660
   8   1.0000     -25.818817      -702.5657
   9   1.0000      -9.285539      -252.6724
  10   1.0000      -9.285508      -252.6715
  11   1.0000      -9.285403      -252.6687
  12   1.0000      -9.285384      -252.6681
  13   1.0000      -7.043856      -191.6731
  14   1.0000      -7.043829      -191.6723
  15   1.0000      -7.043721      -191.6694
  16   1.0000      -7.043697      -191.6687
  17   1.0000      -7.040344      -191.5775
  18   1.0000      -7.040343      -191.5775
  19   1.0000      -7.040325      -191.5770
  20   1.0000      -7.040321      -191.5769
  21   1.0000      -7.040218      -191.5741
  22   1.0000      -7.040212      -191.5739
  23   1.0000      -7.040195      -191.5735
  24   1.0000      -7.040194      -191.5734
  25   1.0000      -3.324079       -90.4528
  26   1.0000      -2.088126       -56.8208
  27   1.0000      -2.088114       -56.8205
  28   1.0000      -2.088100       -56.8201
  29   1.0000      -0.645471       -17.5642
  30   1.0000      -0.633570       -17.2403
  31   1.0000      -0.633444       -17.2369
  32   1.0000      -0.633395       -17.2356
  33   1.0000      -0.237562        -6.4644
  34   1.0000      -0.208826        -5.6825
  35   1.0000      -0.208792        -5.6815
  36   1.0000      -0.208740        -5.6801
  37   1.0000      -0.183813        -5.0018
  38   1.0000      -0.183674        -4.9980
  39   1.0000      -0.179575        -4.8865
  40   1.0000      -0.179462        -4.8834
  41   1.0000      -0.179456        -4.8832
  42   1.0000      -0.145202        -3.9511
  43   1.0000      -0.145094        -3.9482
  44   1.0000      -0.145044        -3.9469
  45   0.0000       0.005304         0.1443
  46   0.0000       0.005363         0.1459
  47   0.0000       0.014864         0.4045
  48   0.0000       0.014873         0.4047
  49   0.0000       0.015001         0.4082

MULLIKEN ATOMIC CHARGES AND SPIN POPULATIONS
--------------------------------------------
   0 Fe:    0.359710    4.073786
   1 Cl:   -0.340368    0.230952
   2 Cl:   -0.339797    0.231498
   3 Cl:   -0.339772    0.231880
   4 Cl:   -0.339772    0.231884
Sum of atomic charges         :   -1.0000000

LOEWDIN ATOMIC CHARGES AND SPIN POPULATIONS
-------------------------------------------
   0 Fe:   -0.099911    4.063367
   1 Cl:   -0.225359    0.233586
   2 Cl:   -0.224852    0.234107
   3 Cl:   -0.224938    0.234469
   4 Cl:   -0.224940    0.234472

  Mayer bond orders larger than 0.100000
B(  0-Fe,  1-Cl) :   1.0354 B(  0-Fe,  2-Cl) :   1.0361 B(  0-Fe,  3-Cl) :   1.0360
B(  0-Fe,  4-Cl) :   1.0360

FINAL SINGLE POINT ENERGY     -3104.452591649298

DIPOLE MOMENT
-------------
                                X             Y             Z
Electronic contribution:      0.00684       0.00541      -0.00005
Nuclear contribution   :     -0.00303      -0.00202       0.00002
                        -----------------------------------------
Total Dipole Moment    :      0.00381       0.00339      -0.00003
                        -----------------------------------------
Magnitude (a.u.)       :      0.00510
Magnitude (Debye)      :      0.01297

Rotational constants in cm-1:     0.035868     0.035776     0.035724
Rotational constants in MHz :  1075.295541  1072.541011  1070.986462

                             ****ORCA TERMINATED NORMALLY****
TOTAL RUN TIME: 0 days 0 hours 0 minutes 10 seconds 462 msec
