                         Program Version 4.2.1 -  RELEASE  -
|  1> ! DFT B3LYP 6-31g TightSCF Grid5 NoFinalGrid SlowConv
|  2> %pal
|  3> nprocs 16
|  4> end
|  5> %method SpecialGridAtoms 26
|  6> SpecialGridIntAcc 7
|  7> end
|  8> %basis NewGTO 26 "CP(PPP)" end
|  9> end
| 10> # [Fe(lll)Az]1+  s = 1/2
| 11> * xyz 1 2
| 12> Fe 0.022934 -0.015741 0.001763
| 13> N 2.001882 -0.168113 -0.406410
| 14> H 2.466331 0.303514 0.374597
| 15> N -0.031051 -1.547153 1.335126
| 16> H 0.306429 -1.067000 2.176633
| 17> N 0.422904 1.087192 1.571240
| 18> N 0.936171 2.169091 1.712859
| 19> N 1.415196 3.208288 1.923100
| 20> C 2.308956 0.621958 -1.639286
| 21> H 2.009045 0.020683 -2.501180
| 22> H 3.382152 0.827744 -1.705455
| 23> C 2.548760 -1.561539 -0.447329
| 24> H 3.623433 -1.505097 -0.656914
| 25> H 2.054710 -2.078051 -1.273675
| 26> C 2.310620 -2.297055 0.871961
| 27> H 2.661812 -1.690517 1.717555
| 28> H 2.924541 -3.203495 0.864077
| 29> C 0.861739 -2.724773 1.107631
| 30> H 0.477072 -3.280429 0.247669
| 31> H 0.810754 -3.372470 1.990460
| 32> C -1.455480 -1.926505 1.589333
| 33> H -1.540972 -2.492222 2.522788
| 34> H -1.784685 -2.565878 0.766310
| 35> C 1.501896 1.906113 -1.565698
| 36> N 0.076842 1.520762 -1.325150
| 37> N -1.959544 0.137464 0.405761
| 38> H -2.438690 -0.332712 -0.366894
| 39> C -2.264284 -0.643422 1.646780
| 40> H -1.964734 -0.033304 2.502275
| 41> H -3.337159 -0.849725 1.714961
| 42> N -0.348262 -1.139014 -1.561295
| 43> N -1.180131 -2.000815 -1.721108
| 44> N -1.950972 -2.840167 -1.952411
| 45> C -2.508184 1.531197 0.440942
| 46> H -3.581675 1.474561 0.654958
| 47> H -2.014882 2.051719 1.264981
| 48> C -2.274665 2.259171 -0.883084
| 49> H -2.623735 1.645942 -1.724858
| 50> H -2.892097 3.163392 -0.880571
| 51> C -0.828368 2.693499 -1.119976
| 52> H -0.245093 1.032794 -2.168264
| 53> H -0.455811 3.270520 -0.269553
| 54> H 1.590062 2.488853 -2.488312
| 55> H 1.826457 2.529027 -0.728275
| 56> H -0.778775 3.328033 -2.012219
| 57> *
| 58> # Note that the EPR block needs to below the coordinate block for
| 59> # the “all Fe” command (all irons) to be recognized.
| 60> %eprnmr nuclei = all Fe {rho, fgrad}
| 61> end
| 62>
| 63>                          ****END OF INPUT****

CARTESIAN COORDINATES (ANGSTROEM)
---------------------------------
  Fe     0.022934   -0.015741    0.001763
  N      2.001882   -0.168113   -0.406410
  H      2.466331    0.303514    0.374597
  N     -0.031051   -1.547153    1.335126
  H      0.306429   -1.067000    2.176633
  N      0.422904    1.087192    1.571240
  N      0.936171    2.169091    1.712859
  N      1.415196    3.208288    1.923100
  C      2.308956    0.621958   -1.639286
  H      2.009045    0.020683   -2.501180
  H      3.382152    0.827744   -1.705455
  C      2.548760   -1.561539   -0.447329
  H      3.623433   -1.505097   -0.656914
  H      2.054710   -2.078051   -1.273675
  C      2.310620   -2.297055    0.871961
  H      2.661812   -1.690517    1.717555
  H      2.924541   -3.203495    0.864077
  C      0.861739   -2.724773    1.107631
  H      0.477072   -3.280429    0.247669
  H      0.810754   -3.372470    1.990460
  C     -1.455480   -1.926505    1.589333
  H     -1.540972   -2.492222    2.522788
  H     -1.784685   -2.565878    0.766310
  C      1.501896    1.906113   -1.565698
  N      0.076842    1.520762   -1.325150
  N     -1.959544    0.137464    0.405761
  H     -2.438690   -0.332712   -0.366894
  C     -2.264284   -0.643422    1.646780
  H     -1.964734   -0.033304    2.502275
  H     -3.337159   -0.849725    1.714961
  N     -0.348262   -1.139014   -1.561295
  N     -1.180131   -2.000815   -1.721108
  N     -1.950972   -2.840167   -1.952411
  C     -2.508184    1.531197    0.440942
  H     -3.581675    1.474561    0.654958
  H     -2.014882    2.051719    1.264981
  C     -2.274665    2.259171   -0.883084
  H     -2.623735    1.645942   -1.724858
  H     -2.892097    3.163392   -0.880571
  C     -0.828368    2.693499   -1.119976
  H     -0.245093    1.032794   -2.168264
  H     -0.455811    3.270520   -0.269553
  H      1.590062    2.488853   -2.488312
  H      1.826457    2.529027   -0.728275
  H     -0.778775    3.328033   -2.012219

 Total Charge           Charge          ....    1
 Multiplicity           Mult            ....    2
 Number of Electrons    NEL             ....  179
 Basis Dimension        Dim             ....  288

ORBITAL ENERGIES
----------------
                 SPIN UP ORBITALS
  NO   OCC          E(Eh)            E(eV)
   0   1.0000    -256.207591     -6971.7630
   1   1.0000     -30.170223      -820.9735
   2   1.0000     -26.037055      -708.5043
   3   1.0000     -26.034530      -708.4356
   4   1.0000     -26.018566      -708.0012
   5   1.0000     -14.595587      -397.1661
   6   1.0000     -14.593541      -397.1104
   7   1.0000     -14.515789      -394.9947
   8   1.0000     -14.513118      -394.9220
   9   1.0000     -14.509372      -394.8201
  10   1.0000     -14.507936      -394.7810
  11   1.0000     -14.492368      -394.3574
  12   1.0000     -14.488777      -394.2597
  13   1.0000     -14.464582      -393.6013
  14   1.0000     -14.462580      -393.5468
  15   1.0000     -10.358342      -281.8648
  16   1.0000     -10.358145      -281.8595
  17   1.0000     -10.357736      -281.8483
  18   1.0000     -10.357655      -281.8461
  19   1.0000     -10.352224      -281.6983
  20   1.0000     -10.352168      -281.6968
  21   1.0000     -10.351443      -281.6771
  22   1.0000     -10.349370      -281.6207
  23   1.0000     -10.323953      -280.9290
  24   1.0000     -10.322246      -280.8826
  25   1.0000      -3.606650       -98.1419
  26   1.0000      -2.393634       -65.1341
  27   1.0000      -2.387420       -64.9650
  28   1.0000      -2.353809       -64.0504
  29   1.0000      -1.244070       -33.8529
  30   1.0000      -1.241355       -33.7790
  31   1.0000      -1.100170       -29.9372
  32   1.0000      -1.089346       -29.6426
  33   1.0000      -1.077081       -29.3089
  34   1.0000      -1.075127       -29.2557
  35   1.0000      -1.072142       -29.1745
  36   1.0000      -1.061476       -28.8842
  37   1.0000      -0.944491       -25.7009
  38   1.0000      -0.912829       -24.8393
  39   1.0000      -0.898901       -24.4603
  40   1.0000      -0.856007       -23.2931
  41   1.0000      -0.817187       -22.2368
  42   1.0000      -0.796201       -21.6657
  43   1.0000      -0.771632       -20.9972
  44   1.0000      -0.766569       -20.8594
  45   1.0000      -0.747820       -20.3492
  46   1.0000      -0.739117       -20.1124
  47   1.0000      -0.671880       -18.2828
  48   1.0000      -0.660855       -17.9828
  49   1.0000      -0.652907       -17.7665
  50   1.0000      -0.651607       -17.7311
  51   1.0000      -0.643940       -17.5225
  52   1.0000      -0.628365       -17.0987
  53   1.0000      -0.623696       -16.9716
  54   1.0000      -0.617904       -16.8140
  55   1.0000      -0.611495       -16.6396
  56   1.0000      -0.610240       -16.6055
  57   1.0000      -0.604737       -16.4557
  58   1.0000      -0.602090       -16.3837
  59   1.0000      -0.596197       -16.2234
  60   1.0000      -0.595381       -16.2012
  61   1.0000      -0.590739       -16.0748
  62   1.0000      -0.580324       -15.7914
  63   1.0000      -0.568682       -15.4746
  64   1.0000      -0.560331       -15.2474
  65   1.0000      -0.556721       -15.1491
  66   1.0000      -0.555399       -15.1132
  67   1.0000      -0.534780       -14.5521
  68   1.0000      -0.533335       -14.5128
  69   1.0000      -0.520603       -14.1663
  70   1.0000      -0.516130       -14.0446
  71   1.0000      -0.514798       -14.0084
  72   1.0000      -0.513978       -13.9860
  73   1.0000      -0.499777       -13.5996
  74   1.0000      -0.499177       -13.5833
  75   1.0000      -0.496183       -13.5018
  76   1.0000      -0.488042       -13.2803
  77   1.0000      -0.484231       -13.1766
  78   1.0000      -0.482184       -13.1209
  79   1.0000      -0.468825       -12.7574
  80   1.0000      -0.454271       -12.3613
  81   1.0000      -0.449805       -12.2398
  82   1.0000      -0.437309       -11.8998
  83   1.0000      -0.428157       -11.6507
  84   1.0000      -0.411576       -11.1995
  85   1.0000      -0.398271       -10.8375
  86   1.0000      -0.361509        -9.8372
  87   1.0000      -0.353153        -9.6098
  88   1.0000      -0.347969        -9.4687
  89   1.0000      -0.340571        -9.2674
  90   0.0000      -0.189245        -5.1496
  91   0.0000      -0.167739        -4.5644
  92   0.0000      -0.102923        -2.8007
  93   0.0000      -0.092010        -2.5037
  94   0.0000      -0.085636        -2.3303

                 SPIN DOWN ORBITALS
  NO   OCC          E(Eh)            E(eV)
   0   1.0000    -256.207536     -6971.7615
   1   1.0000     -30.150101      -820.4259
   2   1.0000     -26.015745      -707.9244
   3   1.0000     -26.014712      -707.8963
   4   1.0000     -26.010052      -707.7695
   5   1.0000     -14.595863      -397.1736
   6   1.0000     -14.593807      -397.1177
   7   1.0000     -14.516235      -395.0068
   8   1.0000     -14.513582      -394.9346
   9   1.0000     -14.509846      -394.8330
  10   1.0000     -14.508404      -394.7937
  11   1.0000     -14.490953      -394.3189
  12   1.0000     -14.487456      -394.2237
  13   1.0000     -14.464559      -393.6007
  14   1.0000     -14.462536      -393.5456
  15   1.0000     -10.358356      -281.8652
  16   1.0000     -10.358158      -281.8598
  17   1.0000     -10.357749      -281.8487
  18   1.0000     -10.357667      -281.8464
  19   1.0000     -10.352202      -281.6977
  20   1.0000     -10.352152      -281.6964
  21   1.0000     -10.351426      -281.6766
  22   1.0000     -10.349350      -281.6201
  23   1.0000     -10.323959      -280.9292
  24   1.0000     -10.322252      -280.8827
  25   1.0000      -3.558250       -96.8249
  26   1.0000      -2.328966       -63.3744
  27   1.0000      -2.327227       -63.3271
  28   1.0000      -2.325734       -63.2864
  29   1.0000      -1.243420       -33.8352
  30   1.0000      -1.240755       -33.7627
  31   1.0000      -1.100622       -29.9494
  32   1.0000      -1.089953       -29.6591
  33   1.0000      -1.075926       -29.2774
  34   1.0000      -1.074058       -29.2266
  35   1.0000      -1.072618       -29.1874
  36   1.0000      -1.062114       -28.9016
  37   1.0000      -0.944532       -25.7020
  38   1.0000      -0.912957       -24.8428
  39   1.0000      -0.899037       -24.4640
  40   1.0000      -0.856182       -23.2979
  41   1.0000      -0.817283       -22.2394
  42   1.0000      -0.796440       -21.6722
  43   1.0000      -0.771770       -21.0009
  44   1.0000      -0.766654       -20.8617
  45   1.0000      -0.747631       -20.3441
  46   1.0000      -0.739191       -20.1144
  47   1.0000      -0.671825       -18.2813
  48   1.0000      -0.661160       -17.9911
  49   1.0000      -0.652803       -17.7637
  50   1.0000      -0.651907       -17.7393
  51   1.0000      -0.643376       -17.5072
  52   1.0000      -0.627688       -17.0803
  53   1.0000      -0.623863       -16.9762
  54   1.0000      -0.617601       -16.8058
  55   1.0000      -0.611455       -16.6385
  56   1.0000      -0.609854       -16.5950
  57   1.0000      -0.604252       -16.4425
  58   1.0000      -0.600447       -16.3390
  59   1.0000      -0.595804       -16.2127
  60   1.0000      -0.594988       -16.1905
  61   1.0000      -0.590449       -16.0669
  62   1.0000      -0.580517       -15.7967
  63   1.0000      -0.569290       -15.4912
  64   1.0000      -0.560160       -15.2427
  65   1.0000      -0.556706       -15.1487
  66   1.0000      -0.555006       -15.1025
  67   1.0000      -0.534745       -14.5511
  68   1.0000      -0.533242       -14.5103
  69   1.0000      -0.518570       -14.1110
  70   1.0000      -0.514573       -14.0022
  71   1.0000      -0.514205       -13.9922
  72   1.0000      -0.512653       -13.9500
  73   1.0000      -0.499153       -13.5826
  74   1.0000      -0.498291       -13.5592
  75   1.0000      -0.496024       -13.4975
  76   1.0000      -0.487538       -13.2666
  77   1.0000      -0.484207       -13.1759
  78   1.0000      -0.482318       -13.1245
  79   1.0000      -0.466676       -12.6989
  80   1.0000      -0.448684       -12.2093
  81   1.0000      -0.438586       -11.9345
  82   1.0000      -0.430016       -11.7013
  83   1.0000      -0.399443       -10.8694
  84   1.0000      -0.376643       -10.2490
  85   1.0000      -0.360430        -9.8078
  86   1.0000      -0.353859        -9.6290
  87   1.0000      -0.350309        -9.5324
  88   1.0000      -0.339673        -9.2430
  89   0.0000      -0.209351        -5.6967
  90   0.0000      -0.170872        -4.6497
  91   0.0000      -0.143510        -3.9051
  92   0.0000      -0.102315        -2.7841
  93   0.0000      -0.090586        -2.4650

MULLIKEN ATOMIC CHARGES AND SPIN POPULATIONS
--------------------------------------------
   0 Fe:    0.837799    0.994959
   1 N :   -0.680791   -0.022175
   2 H :    0.368073    0.002939
   3 N :   -0.683108   -0.022434
   4 H :    0.392007    0.002527
   5 N :   -0.372722   -0.012618
   6 N :    0.038197   -0.013832
   7 N :   -0.153684    0.069101
   8 C :   -0.123917    0.000154
   9 H :    0.220238   -0.000055
  10 H :    0.190215   -0.001219
  11 C :   -0.105683    0.001152
  12 H :    0.174854   -0.000899
  13 H :    0.213578   -0.000033
  14 C :   -0.288946   -0.000440
  15 H :    0.168650    0.000187
  16 H :    0.189446    0.000090
  17 C :   -0.106098    0.001106
  18 H :    0.198389   -0.000153
  19 H :    0.177038   -0.001015
  20 C :   -0.135099    0.000147
  21 H :    0.191816   -0.001257
  22 H :    0.208264    0.000019
  23 C :   -0.133547    0.000079
  24 N :   -0.683163   -0.022395
  25 N :   -0.683815   -0.021450
  26 H :    0.364959    0.001740
  27 C :   -0.122448    0.000174
  28 H :    0.219438   -0.000082
  29 H :    0.191199   -0.001186
  30 N :   -0.372993   -0.014605
  31 N :    0.046968   -0.013740
  32 N :   -0.152155    0.073677
  33 C :   -0.109792    0.001315
  34 H :    0.178079   -0.000800
  35 H :    0.208961   -0.000018
  36 C :   -0.288271   -0.000437
  37 H :    0.168903    0.000149
  38 H :    0.191645    0.000087
  39 C :   -0.112047    0.001054
  40 H :    0.391528    0.002649
  41 H :    0.199208   -0.000044
  42 H :    0.191578   -0.001235
  43 H :    0.208715   -0.000173
  44 H :    0.178535   -0.001013
Sum of atomic charges         :    1.0000000

LOEWDIN ATOMIC CHARGES AND SPIN POPULATIONS
-------------------------------------------
   0 Fe:   -0.358245    0.969991
   1 N :   -0.149396   -0.017426
   2 H :    0.251639    0.002026
   3 N :   -0.157546   -0.017811
   4 H :    0.261623    0.001615
   5 N :   -0.263094   -0.003611
   6 N :    0.096729   -0.009238
   7 N :   -0.126926    0.061645
   8 C :   -0.100010   -0.000334
   9 H :    0.149617   -0.000032
  10 H :    0.132505   -0.000972
  11 C :   -0.093691    0.000816
  12 H :    0.121604   -0.000810
  13 H :    0.147163   -0.000158
  14 C :   -0.202029   -0.000368
  15 H :    0.126572    0.000123
  16 H :    0.143630    0.000081
  17 C :   -0.092368    0.000693
  18 H :    0.137867   -0.000161
  19 H :    0.122832   -0.000924
  20 C :   -0.103186   -0.000343
  21 H :    0.133427   -0.000995
  22 H :    0.141016    0.000005
  23 C :   -0.102259   -0.000388
  24 N :   -0.158265   -0.017854
  25 N :   -0.150770   -0.016926
  26 H :    0.249611    0.001333
  27 C :   -0.099412   -0.000380
  28 H :    0.149091   -0.000035
  29 H :    0.133178   -0.000938
  30 N :   -0.255393   -0.005060
  31 N :    0.092832   -0.009416
  32 N :   -0.123135    0.065816
  33 C :   -0.093279    0.000933
  34 H :    0.123180   -0.000724
  35 H :    0.144778   -0.000151
  36 C :   -0.202156   -0.000355
  37 H :    0.126248    0.000093
  38 H :    0.144801    0.000078
  39 C :   -0.094975    0.000625
  40 H :    0.259894    0.001649
  41 H :    0.138153   -0.000108
  42 H :    0.133272   -0.000978
  43 H :    0.140985   -0.000098
  44 H :    0.123889   -0.000926

  Mayer bond orders larger than 0.100000
B(  0-Fe,  1-N ) :   0.4344 B(  0-Fe,  3-N ) :   0.4325 B(  0-Fe,  5-N ) :   0.6789
B(  0-Fe,  7-N ) :   0.1086 B(  0-Fe, 24-N ) :   0.4405 B(  0-Fe, 25-N ) :   0.4304
B(  0-Fe, 30-N ) :   0.6862 B(  0-Fe, 32-N ) :   0.1166 B(  1-N ,  2-H ) :   0.7864
B(  1-N ,  8-C ) :   0.8229 B(  1-N , 11-C ) :   0.8158 B(  3-N ,  4-H ) :   0.7651
B(  3-N , 17-C ) :   0.8214 B(  3-N , 20-C ) :   0.8293 B(  5-N ,  6-N ) :   1.2417
B(  5-N ,  7-N ) :   0.6056 B(  6-N ,  7-N ) :   1.8595 B(  8-C ,  9-H ) :   0.9131
B(  8-C , 10-H ) :   0.9227 B(  8-C , 23-C ) :   0.9435 B( 11-C , 12-H ) :   0.9255
B( 11-C , 13-H ) :   0.9102 B( 11-C , 14-C ) :   0.9582 B( 14-C , 15-H ) :   0.9258
B( 14-C , 16-H ) :   0.9270 B( 14-C , 17-C ) :   0.9610 B( 17-C , 18-H ) :   0.9210
B( 17-C , 19-H ) :   0.9260 B( 20-C , 21-H ) :   0.9229 B( 20-C , 22-H ) :   0.9099
B( 20-C , 27-C ) :   0.9445 B( 23-C , 24-N ) :   0.8267 B( 23-C , 42-H ) :   0.9230
B( 23-C , 43-H ) :   0.9099 B( 24-N , 39-C ) :   0.8213 B( 24-N , 40-H ) :   0.7638
B( 25-N , 26-H ) :   0.7907 B( 25-N , 27-C ) :   0.8213 B( 25-N , 33-C ) :   0.8166
B( 27-C , 28-H ) :   0.9128 B( 27-C , 29-H ) :   0.9226 B( 30-N , 31-N ) :   1.2203
B( 30-N , 32-N ) :   0.6057 B( 31-N , 32-N ) :   1.8508 B( 33-C , 34-H ) :   0.9253
B( 33-C , 35-H ) :   0.9134 B( 33-C , 36-C ) :   0.9568 B( 36-C , 37-H ) :   0.9252
B( 36-C , 38-H ) :   0.9264 B( 36-C , 39-C ) :   0.9600 B( 39-C , 41-H ) :   0.9182
B( 39-C , 44-H ) :   0.9265

FINAL SINGLE POINT ENERGY     -2205.601084226880

DIPOLE MOMENT
-------------
                                X             Y             Z
Electronic contribution:     -0.44659       0.29849      -0.02906
Nuclear contribution   :      0.60875      -0.42615       0.02012
                        -----------------------------------------
Total Dipole Moment    :      0.16216      -0.12767      -0.00894
                        -----------------------------------------
Magnitude (a.u.)       :      0.20658
Magnitude (Debye)      :      0.52508

Rotational constants in cm-1:     0.012267     0.010539     0.008992
Rotational constants in MHz :   367.769099   315.955498   269.582638

                             ****ORCA TERMINATED NORMALLY****
TOTAL RUN TIME: 0 days 0 hours 3 minutes 37 seconds 727 msec
