                         Program Version 4.2.1 -  RELEASE  -
|  1> ! DFT B3LYP 6-31g TightSCF Grid5 NoFinalGrid SlowConv
|  2> %pal
|  3> nprocs 16
|  4> end
|  5> %method SpecialGridAtoms 26
|  6> SpecialGridIntAcc 7
|  7> end
|  8> %basis NewGTO 26 "CP(PPP)" end
|  9> end
| 10> # [Fe(PH)3]0 , s = 0 ,  m = 2s + 1
| 11> * xyz 0 1
| 12> Fe -0.000082 -0.598603 -0.036628
| 13> P 0.211882 -2.810897 -0.175639
| 14> H 1.483580 -3.394435 0.062124
| 15> S -1.681392 -0.534557 -1.511495
| 16> S -1.537799 -0.721723 1.691329
| 17> S 1.641137 -0.589803 -1.700668
| 18> S 1.585758 -0.380926 1.517692
| 19> C -5.508724 -0.173407 1.009369
| 20> C -5.588937 -0.037866 -0.385599
| 21> C -4.423332 -0.121705 -1.148355
| 22> C -3.188144 -0.308244 -0.513901
| 23> C -3.087323 -0.442376 0.885241
| 24> C -4.282533 -0.370864 1.635462
| 25> C 3.147999 -0.395253 -0.778180
| 26> C 3.154055 -0.248197 0.622722
| 27> C 4.399575 -0.386836 -1.431544
| 28> C 5.582458 -0.240951 -0.712848
| 29> C 5.565693 -0.098724 0.683030
| 30> C 4.342429 -0.115705 1.350206
| 31> C -1.345139 1.178247 -2.153467
| 32> C 1.189049 1.376223 1.995464
| 33> C 0.561184 2.121374 0.861648
| 34> C -0.725954 2.030067 -1.088150
| 35> N -0.077455 1.378733 -0.082727
| 36> C -0.763780 3.422804 -1.157212
| 37> C 0.578921 3.513750 0.826018
| 38> C -0.092386 4.180399 -0.200476
| 39> H -6.413097 -0.136861 1.610919
| 40> H -6.550374 0.110370 -0.868304
| 41> H -4.473632 -0.043424 -2.231907
| 42> H -4.229319 -0.470945 2.716483
| 43> H 4.436800 -0.498539 -2.512141
| 44> H 6.529165 -0.244740 -1.246735
| 45> H 6.492124 0.001529 1.241309
| 46> H 4.301630 -0.031284 2.433748
| 47> H -2.259398 1.606885 -2.566467
| 48> H -0.626592 1.008816 -2.961814
| 49> H 2.081446 1.864802 2.390684
| 50> H 0.459752 1.245926 2.801183
| 51> H -1.292561 3.905642 -1.972474
| 52> H 1.103275 4.056602 1.605393
| 53> H -0.094881 5.264749 -0.250717
| 54> H -0.029598 -3.415509 -1.436139
| 55> H -0.571713 -3.680252 0.632427
| 56> *
| 57> # Note that the EPR block needs to below the coordinate block for
| 58> # the “all Fe” command (all irons) to be recognized.
| 59> %eprnmr nuclei = all Fe {rho, fgrad}
| 60> end
| 61>
| 62>                          ****END OF INPUT****

CARTESIAN COORDINATES (ANGSTROEM)
---------------------------------
  Fe    -0.000082   -0.598603   -0.036628
  P      0.211882   -2.810897   -0.175639
  H      1.483580   -3.394435    0.062124
  S     -1.681392   -0.534557   -1.511495
  S     -1.537799   -0.721723    1.691329
  S      1.641137   -0.589803   -1.700668
  S      1.585758   -0.380926    1.517692
  C     -5.508724   -0.173407    1.009369
  C     -5.588937   -0.037866   -0.385599
  C     -4.423332   -0.121705   -1.148355
  C     -3.188144   -0.308244   -0.513901
  C     -3.087323   -0.442376    0.885241
  C     -4.282533   -0.370864    1.635462
  C      3.147999   -0.395253   -0.778180
  C      3.154055   -0.248197    0.622722
  C      4.399575   -0.386836   -1.431544
  C      5.582458   -0.240951   -0.712848
  C      5.565693   -0.098724    0.683030
  C      4.342429   -0.115705    1.350206
  C     -1.345139    1.178247   -2.153467
  C      1.189049    1.376223    1.995464
  C      0.561184    2.121374    0.861648
  C     -0.725954    2.030067   -1.088150
  N     -0.077455    1.378733   -0.082727
  C     -0.763780    3.422804   -1.157212
  C      0.578921    3.513750    0.826018
  C     -0.092386    4.180399   -0.200476
  H     -6.413097   -0.136861    1.610919
  H     -6.550374    0.110370   -0.868304
  H     -4.473632   -0.043424   -2.231907
  H     -4.229319   -0.470945    2.716483
  H      4.436800   -0.498539   -2.512141
  H      6.529165   -0.244740   -1.246735
  H      6.492124    0.001529    1.241309
  H      4.301630   -0.031284    2.433748
  H     -2.259398    1.606885   -2.566467
  H     -0.626592    1.008816   -2.961814
  H      2.081446    1.864802    2.390684
  H      0.459752    1.245926    2.801183
  H     -1.292561    3.905642   -1.972474
  H      1.103275    4.056602    1.605393
  H     -0.094881    5.264749   -0.250717
  H     -0.029598   -3.415509   -1.436139
  H     -0.571713   -3.680252    0.632427

 Total Charge           Charge          ....    0
 Multiplicity           Mult            ....    1
 Number of Electrons    NEL             ....  244
 Basis Dimension        Dim             ....  341

ORBITAL ENERGIES
----------------

  NO   OCC          E(Eh)            E(eV)
   0   2.0000    -255.996842     -6966.0282
   1   2.0000     -88.892275     -2418.8818
   2   2.0000     -88.891531     -2418.8615
   3   2.0000     -88.798372     -2416.3266
   4   2.0000     -88.792963     -2416.1794
   5   2.0000     -77.078247     -2097.4057
   6   2.0000     -29.943550      -814.8054
   7   2.0000     -25.807726      -702.2639
   8   2.0000     -25.806078      -702.2191
   9   2.0000     -25.803552      -702.1504
  10   2.0000     -14.381985      -391.3537
  11   2.0000     -10.258220      -279.1403
  12   2.0000     -10.257190      -279.1123
  13   2.0000     -10.231223      -278.4057
  14   2.0000     -10.229571      -278.3608
  15   2.0000     -10.223880      -278.2059
  16   2.0000     -10.216548      -278.0064
  17   2.0000     -10.216538      -278.0061
  18   2.0000     -10.209915      -277.8259
  19   2.0000     -10.209207      -277.8066
  20   2.0000     -10.208260      -277.7809
  21   2.0000     -10.205959      -277.7183
  22   2.0000     -10.189062      -277.2585
  23   2.0000     -10.187778      -277.2235
  24   2.0000     -10.181312      -277.0476
  25   2.0000     -10.178570      -276.9730
  26   2.0000     -10.177496      -276.9438
  27   2.0000     -10.175700      -276.8949
  28   2.0000     -10.175034      -276.8768
  29   2.0000     -10.172536      -276.8088
  30   2.0000      -7.970360      -216.8845
  31   2.0000      -7.969832      -216.8702
  32   2.0000      -7.876505      -214.3306
  33   2.0000      -7.871555      -214.1959
  34   2.0000      -6.571374      -178.8162
  35   2.0000      -5.934039      -161.4734
  36   2.0000      -5.933538      -161.4598
  37   2.0000      -5.930337      -161.3727
  38   2.0000      -5.929740      -161.3564
  39   2.0000      -5.924092      -161.2027
  40   2.0000      -5.923515      -161.1870
  41   2.0000      -5.841334      -158.9508
  42   2.0000      -5.836407      -158.8167
  43   2.0000      -5.834014      -158.7516
  44   2.0000      -5.832003      -158.6969
  45   2.0000      -5.829065      -158.6169
  46   2.0000      -5.826937      -158.5590
  47   2.0000      -4.731889      -128.7612
  48   2.0000      -4.731668      -128.7552
  49   2.0000      -4.728273      -128.6628
  50   2.0000      -3.374436       -91.8231
  51   2.0000      -2.152702       -58.5780
  52   2.0000      -2.147812       -58.4449
  53   2.0000      -2.141859       -58.2829
  54   2.0000      -0.989407       -26.9231
  55   2.0000      -0.868052       -23.6209
  56   2.0000      -0.863956       -23.5094
  57   2.0000      -0.843510       -22.9531
  58   2.0000      -0.833685       -22.6857
  59   2.0000      -0.813013       -22.1232
  60   2.0000      -0.785711       -21.3803
  61   2.0000      -0.761451       -20.7201
  62   2.0000      -0.758197       -20.6316
  63   2.0000      -0.746774       -20.3208
  64   2.0000      -0.732069       -19.9206
  65   2.0000      -0.694508       -18.8985
  66   2.0000      -0.678555       -18.4644
  67   2.0000      -0.673771       -18.3342
  68   2.0000      -0.656522       -17.8649
  69   2.0000      -0.652846       -17.7648
  70   2.0000      -0.633541       -17.2395
  71   2.0000      -0.630456       -17.1556
  72   2.0000      -0.590663       -16.0728
  73   2.0000      -0.588179       -16.0052
  74   2.0000      -0.569261       -15.4904
  75   2.0000      -0.562654       -15.3106
  76   2.0000      -0.536941       -14.6109
  77   2.0000      -0.519328       -14.1316
  78   2.0000      -0.501112       -13.6359
  79   2.0000      -0.487385       -13.2624
  80   2.0000      -0.485382       -13.2079
  81   2.0000      -0.478355       -13.0167
  82   2.0000      -0.464336       -12.6352
  83   2.0000      -0.457800       -12.4574
  84   2.0000      -0.453340       -12.3360
  85   2.0000      -0.447391       -12.1741
  86   2.0000      -0.446057       -12.1378
  87   2.0000      -0.439340       -11.9550
  88   2.0000      -0.435800       -11.8587
  89   2.0000      -0.421438       -11.4679
  90   2.0000      -0.413591       -11.2544
  91   2.0000      -0.410187       -11.1618
  92   2.0000      -0.401915       -10.9367
  93   2.0000      -0.394748       -10.7416
  94   2.0000      -0.394216       -10.7272
  95   2.0000      -0.393339       -10.7033
  96   2.0000      -0.391382       -10.6500
  97   2.0000      -0.383864       -10.4455
  98   2.0000      -0.370025       -10.0689
  99   2.0000      -0.366034        -9.9603
 100   2.0000      -0.349452        -9.5091
 101   2.0000      -0.345872        -9.4116
 102   2.0000      -0.337094        -9.1728
 103   2.0000      -0.330558        -8.9949
 104   2.0000      -0.324092        -8.8190
 105   2.0000      -0.317727        -8.6458
 106   2.0000      -0.311394        -8.4735
 107   2.0000      -0.310078        -8.4376
 108   2.0000      -0.299259        -8.1433
 109   2.0000      -0.280865        -7.6427
 110   2.0000      -0.274824        -7.4783
 111   2.0000      -0.270380        -7.3574
 112   2.0000      -0.266241        -7.2448
 113   2.0000      -0.246317        -6.7026
 114   2.0000      -0.243273        -6.6198
 115   2.0000      -0.239172        -6.5082
 116   2.0000      -0.216986        -5.9045
 117   2.0000      -0.206528        -5.6199
 118   2.0000      -0.198566        -5.4033
 119   2.0000      -0.194693        -5.2979
 120   2.0000      -0.175709        -4.7813
 121   2.0000      -0.154918        -4.2155
 122   0.0000      -0.049936        -1.3588
 123   0.0000      -0.033184        -0.9030
 124   0.0000      -0.008658        -0.2356
 125   0.0000      -0.005698        -0.1551
 126   0.0000       0.005790         0.1575

MULLIKEN ATOMIC CHARGES
-----------------------
   0 Fe:   -0.061845
   1 P :    0.200919
   2 H :   -0.003453
   3 S :    0.435938
   4 S :    0.015154
   5 S :    0.009284
   6 S :    0.450467
   7 C :   -0.109036
   8 C :   -0.136866
   9 C :   -0.100695
  10 C :   -0.295182
  11 C :   -0.239161
  12 C :   -0.127755
  13 C :   -0.234736
  14 C :   -0.310965
  15 C :   -0.130679
  16 C :   -0.109401
  17 C :   -0.135548
  18 C :   -0.096293
  19 C :   -0.580973
  20 C :   -0.576986
  21 C :    0.339112
  22 C :    0.341302
  23 N :   -0.532239
  24 C :   -0.118883
  25 C :   -0.116010
  26 C :   -0.120422
  27 H :    0.123447
  28 H :    0.120987
  29 H :    0.128680
  30 H :    0.137334
  31 H :    0.138185
  32 H :    0.124552
  33 H :    0.123288
  34 H :    0.132886
  35 H :    0.190278
  36 H :    0.244802
  37 H :    0.188634
  38 H :    0.246430
  39 H :    0.150067
  40 H :    0.150491
  41 H :    0.151254
  42 H :    0.001506
  43 H :   -0.007869
Sum of atomic charges:   -0.0000000

LOEWDIN ATOMIC CHARGES
----------------------
   0 Fe:   -1.134037
   1 P :    0.395109
   2 H :    0.014661
   3 S :    0.535753
   4 S :    0.021080
   5 S :    0.009534
   6 S :    0.544641
   7 C :   -0.105523
   8 C :   -0.139837
   9 C :   -0.109285
  10 C :   -0.200265
  11 C :   -0.137423
  12 C :   -0.119680
  13 C :   -0.135441
  14 C :   -0.205161
  15 C :   -0.119383
  16 C :   -0.104717
  17 C :   -0.137679
  18 C :   -0.107613
  19 C :   -0.301688
  20 C :   -0.301719
  21 C :    0.078259
  22 C :    0.079479
  23 N :   -0.001945
  24 C :   -0.120878
  25 C :   -0.120511
  26 C :   -0.076081
  27 H :    0.116385
  28 H :    0.115268
  29 H :    0.118893
  30 H :    0.126469
  31 H :    0.126675
  32 H :    0.116949
  33 H :    0.116262
  34 H :    0.121065
  35 H :    0.140357
  36 H :    0.170034
  37 H :    0.140652
  38 H :    0.171575
  39 H :    0.131518
  40 H :    0.131783
  41 H :    0.130716
  42 H :    0.018528
  43 H :    0.007221

  Mayer bond orders larger than 0.100000
B(  0-Fe,  1-P ) :   0.6207 B(  0-Fe,  3-S ) :   0.6688 B(  0-Fe,  4-S ) :   0.8466
B(  0-Fe,  5-S ) :   0.8054 B(  0-Fe,  6-S ) :   0.6671 B(  0-Fe, 23-N ) :   0.5085
B(  1-P ,  2-H ) :   0.8871 B(  1-P , 42-H ) :   0.8876 B(  1-P , 43-H ) :   0.8618
B(  3-S , 10-C ) :   0.9010 B(  3-S , 19-C ) :   0.8876 B(  4-S , 11-C ) :   1.0538
B(  5-S , 13-C ) :   1.0530 B(  6-S , 14-C ) :   0.9091 B(  6-S , 20-C ) :   0.8834
B(  7-C ,  8-C ) :   1.4023 B(  7-C , 12-C ) :   1.4807 B(  7-C , 27-H ) :   0.9335
B(  8-C ,  9-C ) :   1.4629 B(  8-C , 28-H ) :   0.9331 B(  9-C , 10-C ) :   1.3989
B(  9-C , 29-H ) :   0.9289 B( 10-C , 11-C ) :   1.3261 B( 11-C , 12-C ) :   1.3686
B( 12-C , 30-H ) :   0.9280 B( 13-C , 14-C ) :   1.3238 B( 13-C , 15-C ) :   1.3756
B( 14-C , 18-C ) :   1.3997 B( 15-C , 16-C ) :   1.4776 B( 15-C , 31-H ) :   0.9280
B( 16-C , 17-C ) :   1.4048 B( 16-C , 32-H ) :   0.9335 B( 17-C , 18-C ) :   1.4617
B( 17-C , 33-H ) :   0.9326 B( 18-C , 34-H ) :   0.9282 B( 19-C , 22-C ) :   0.8967
B( 19-C , 35-H ) :   0.9169 B( 19-C , 36-H ) :   0.8928 B( 20-C , 21-C ) :   0.8989
B( 20-C , 37-H ) :   0.9173 B( 20-C , 38-H ) :   0.8917 B( 21-C , 23-N ) :   1.2082
B( 21-C , 25-C ) :   1.4431 B( 22-C , 23-N ) :   1.2116 B( 22-C , 24-C ) :   1.4402
B( 24-C , 26-C ) :   1.4252 B( 24-C , 39-H ) :   0.9239 B( 25-C , 26-C ) :   1.4199
B( 25-C , 40-H ) :   0.9232 B( 26-C , 41-H ) :   0.9260

FINAL SINGLE POINT ENERGY     -3986.288373791479

DIPOLE MOMENT
-------------
                                X             Y             Z
Electronic contribution:     -0.04199      -9.17399      -0.07992
Nuclear contribution   :      0.12915      11.09354      -0.08269
                        -----------------------------------------
Total Dipole Moment    :      0.08716       1.91954      -0.16261
                        -----------------------------------------
Magnitude (a.u.)       :      1.92839
Magnitude (Debye)      :      4.90157

Rotational constants in cm-1:     0.009419     0.003984     0.003645
Rotational constants in MHz :   282.387699   119.446101   109.275166

                             ****ORCA TERMINATED NORMALLY****
TOTAL RUN TIME: 0 days 0 hours 2 minutes 36 seconds 224 msec
