                         Program Version 4.2.1 -  RELEASE  -
|  1> ! DFT B3LYP 6-31g TightSCF Grid5 NoFinalGrid SlowConv
|  2> %pal
|  3> nprocs 16
|  4> end
|  5> %method SpecialGridAtoms 26
|  6> SpecialGridIntAcc 7
|  7> end
|  8> %basis NewGTO 26 "CP(PPP)" end
|  9> end
| 10> # [Fe(Vl)(O)4]2- , s = 1 ,  m = 2s + 1
| 11> * xyz -2 3
| 12> Fe -0.006048  0.000584  0.000042
| 13> O   1.660892  0.005855 -0.000247
| 14> O  -0.545958  1.578335  0.000132
| 15> O  -0.554251 -0.792441 -1.360507
| 16> O  -0.554635 -0.792332  1.360581
| 17> *
| 18> # Note that the EPR block needs to below the coordinate block for
| 19> # the “all Fe” command (all irons) to be recognized.
| 20> %eprnmr nuclei = all Fe {rho, fgrad}
| 21> end
| 22>
| 23>                          ****END OF INPUT****

CARTESIAN COORDINATES (ANGSTROEM)
---------------------------------
  Fe    -0.006048    0.000584    0.000042
  O      1.660892    0.005855   -0.000247
  O     -0.545958    1.578335    0.000132
  O     -0.554251   -0.792441   -1.360507
  O     -0.554635   -0.792332    1.360581

 Total Charge           Charge          ....   -2
 Multiplicity           Mult            ....    3
 Number of Electrons    NEL             ....   60
 Basis Dimension        Dim             ....   96

ORBITAL ENERGIES
----------------
                 SPIN UP ORBITALS
  NO   OCC          E(Eh)            E(eV)
   0   1.0000    -255.757389     -6959.5124
   1   1.0000     -29.746416      -809.4411
   2   1.0000     -25.602965      -696.6921
   3   1.0000     -25.602937      -696.6913
   4   1.0000     -25.602747      -696.6862
   5   1.0000     -18.707804      -509.0652
   6   1.0000     -18.707745      -509.0636
   7   1.0000     -18.707736      -509.0634
   8   1.0000     -18.707562      -509.0586
   9   1.0000      -3.176414       -86.4346
  10   1.0000      -1.947799       -53.0023
  11   1.0000      -1.947635       -52.9979
  12   1.0000      -1.947540       -52.9953
  13   1.0000      -0.481179       -13.0935
  14   1.0000      -0.462632       -12.5889
  15   1.0000      -0.462605       -12.5881
  16   1.0000      -0.462518       -12.5857
  17   1.0000      -0.027576        -0.7504
  18   1.0000      -0.027060        -0.7363
  19   1.0000       0.008864         0.2412
  20   1.0000       0.008988         0.2446
  21   1.0000       0.009503         0.2586
  22   1.0000       0.083643         2.2760
  23   1.0000       0.103732         2.8227
  24   1.0000       0.103873         2.8265
  25   1.0000       0.103909         2.8275
  26   1.0000       0.155093         4.2203
  27   1.0000       0.155420         4.2292
  28   1.0000       0.155516         4.2318
  29   1.0000       0.182312         4.9610
  30   1.0000       0.182322         4.9612
  31   0.0000       0.317087         8.6284
  32   0.0000       0.318147         8.6572
  33   0.0000       0.318861         8.6767
  34   0.0000       0.376357        10.2412
  35   0.0000       0.400402        10.8955

                 SPIN DOWN ORBITALS
  NO   OCC          E(Eh)            E(eV)
   0   1.0000    -255.757406     -6959.5128
   1   1.0000     -29.710331      -808.4592
   2   1.0000     -25.573408      -695.8878
   3   1.0000     -25.573366      -695.8867
   4   1.0000     -25.572906      -695.8742
   5   1.0000     -18.703788      -508.9560
   6   1.0000     -18.703734      -508.9545
   7   1.0000     -18.703720      -508.9541
   8   1.0000     -18.703407      -508.9456
   9   1.0000      -3.095716       -84.2387
  10   1.0000      -1.863931       -50.7201
  11   1.0000      -1.863805       -50.7167
  12   1.0000      -1.862935       -50.6930
  13   1.0000      -0.470809       -12.8114
  14   1.0000      -0.450762       -12.2659
  15   1.0000      -0.450720       -12.2647
  16   1.0000      -0.450343       -12.2545
  17   1.0000       0.031891         0.8678
  18   1.0000       0.032018         0.8713
  19   1.0000       0.032491         0.8841
  20   1.0000       0.059305         1.6138
  21   1.0000       0.059958         1.6316
  22   1.0000       0.076705         2.0872
  23   1.0000       0.116466         3.1692
  24   1.0000       0.116593         3.1727
  25   1.0000       0.116914         3.1814
  26   1.0000       0.179762         4.8916
  27   1.0000       0.180591         4.9141
  28   1.0000       0.180660         4.9160
  29   0.0000       0.324806         8.8384
  30   0.0000       0.325184         8.8487
  31   0.0000       0.343756         9.3541
  32   0.0000       0.344629         9.3778
  33   0.0000       0.345168         9.3925

MULLIKEN ATOMIC CHARGES AND SPIN POPULATIONS
--------------------------------------------
   0 Fe:    0.612946    1.365644
   1 O :   -0.651392    0.163064
   2 O :   -0.654004    0.156776
   3 O :   -0.653751    0.157309
   4 O :   -0.653799    0.157206
Sum of atomic charges         :   -2.0000000

LOEWDIN ATOMIC CHARGES AND SPIN POPULATIONS
-------------------------------------------
   0 Fe:   -0.305798    1.387642
   1 O :   -0.421536    0.157352
   2 O :   -0.424394    0.151364
   3 O :   -0.424096    0.151870
   4 O :   -0.424177    0.151773

  Mayer bond orders larger than 0.100000
B(  0-Fe,  1-O ) :   1.4604 B(  0-Fe,  2-O ) :   1.4587 B(  0-Fe,  3-O ) :   1.4588
B(  0-Fe,  4-O ) :   1.4588 B(  1-O ,  2-O ) :   0.1635 B(  1-O ,  3-O ) :   0.1642
B(  1-O ,  4-O ) :   0.1642 B(  2-O ,  3-O ) :   0.1647 B(  2-O ,  4-O ) :   0.1646
B(  3-O ,  4-O ) :   0.1639

FINAL SINGLE POINT ENERGY     -1564.201929066085

DIPOLE MOMENT
-------------
                                X             Y             Z
Electronic contribution:     -0.02809       0.00269       0.00010
Nuclear contribution   :      0.01470      -0.00142      -0.00010
                        -----------------------------------------
Total Dipole Moment    :     -0.01339       0.00127       0.00000
                        -----------------------------------------
Magnitude (a.u.)       :      0.01345
Magnitude (Debye)      :      0.03418

Rotational constants in cm-1:     0.143060     0.142034     0.141288
Rotational constants in MHz :  4288.832755  4258.062181  4235.702110

                             ****ORCA TERMINATED NORMALLY****
TOTAL RUN TIME: 0 days 0 hours 0 minutes 11 seconds 936 msec
