                         Program Version 4.2.1 -  RELEASE  -
|  1> ! DFT B3LYP 6-31g TightSCF Grid5 NoFinalGrid SlowConv
|  2> %pal
|  3> nprocs 16
|  4> end
|  5> %method SpecialGridAtoms 26
|  6> SpecialGridIntAcc 7
|  7> end
|  8> %basis NewGTO 26 "CP(PPP)" end
|  9> end
| 10> # [Fe(lll)(H2O)6]3+ , s = 5/2 ,  m = 2s + 1
| 11> * xyz 3 6
| 12> Fe -0.000411 -0.000246 -0.000775
| 13> O  -0.167444  1.039129  1.718988
| 14> H   0.366677  1.821113  1.953619
| 15> O  -1.202644  1.288334 -0.980811
| 16> H  -1.651846  2.054751 -0.579763
| 17> O  -1.605608 -1.105693  0.509300
| 18> H  -2.530881 -0.892003  0.288257
| 19> O   0.168539 -1.041049 -1.719384
| 20> H   0.865752 -0.926020 -2.391147
| 21> O   1.201001 -1.287151  0.983345
| 22> H   1.461288 -1.224386  1.921214
| 23> O   1.604203  1.105655 -0.512009
| 24> H   2.529380  0.891372 -0.291077
| 25> H  -1.462647  1.230426 -1.919134
| 26> H   1.597565  1.901203 -1.075919
| 27> H  -0.863921  0.926491  2.391934
| 28> H   1.650092 -2.055598  0.586009
| 29> H  -0.365028 -1.822453 -1.957149
| 30> H  -1.598574 -1.900879  1.073614
| 31> *
| 32> # Note that the EPR block needs to below the coordinate block for
| 33> # the “all Fe” command (all irons) to be recognized.
| 34> %eprnmr nuclei = all Fe {rho, fgrad}
| 35> end
| 36>
| 37>                          ****END OF INPUT****

CARTESIAN COORDINATES (ANGSTROEM)
---------------------------------
  Fe    -0.000411   -0.000246   -0.000775
  O     -0.167444    1.039129    1.718988
  H      0.366677    1.821113    1.953619
  O     -1.202644    1.288334   -0.980811
  H     -1.651846    2.054751   -0.579763
  O     -1.605608   -1.105693    0.509300
  H     -2.530881   -0.892003    0.288257
  O      0.168539   -1.041049   -1.719384
  H      0.865752   -0.926020   -2.391147
  O      1.201001   -1.287151    0.983345
  H      1.461288   -1.224386    1.921214
  O      1.604203    1.105655   -0.512009
  H      2.529380    0.891372   -0.291077
  H     -1.462647    1.230426   -1.919134
  H      1.597565    1.901203   -1.075919
  H     -0.863921    0.926491    2.391934
  H      1.650092   -2.055598    0.586009
  H     -0.365028   -1.822453   -1.957149
  H     -1.598574   -1.900879    1.073614

 Total Charge           Charge          ....    3
 Multiplicity           Mult            ....    6
 Number of Electrons    NEL             ....   83
 Basis Dimension        Dim             ....  138

ORBITAL ENERGIES
----------------
                 SPIN UP ORBITALS
  NO   OCC          E(Eh)            E(eV)
   0   1.0000    -256.735143     -6986.1184
   1   1.0000     -30.736549      -836.3840
   2   1.0000     -26.589374      -723.5337
   3   1.0000     -26.589274      -723.5309
   4   1.0000     -26.589230      -723.5297
   5   1.0000     -19.695109      -535.9312
   6   1.0000     -19.694999      -535.9282
   7   1.0000     -19.694904      -535.9256
   8   1.0000     -19.694882      -535.9250
   9   1.0000     -19.694678      -535.9194
  10   1.0000     -19.694559      -535.9162
  11   1.0000      -4.229258      -115.0840
  12   1.0000      -3.003183       -81.7208
  13   1.0000      -3.003008       -81.7160
  14   1.0000      -3.002913       -81.7134
  15   1.0000      -1.566859       -42.6364
  16   1.0000      -1.556716       -42.3604
  17   1.0000      -1.556636       -42.3582
  18   1.0000      -1.555732       -42.3336
  19   1.0000      -1.554525       -42.3008
  20   1.0000      -1.554179       -42.2914
  21   1.0000      -1.081669       -29.4337
  22   1.0000      -1.080290       -29.3962
  23   1.0000      -1.079890       -29.3853
  24   1.0000      -1.073563       -29.2131
  25   1.0000      -1.073385       -29.2083
  26   1.0000      -1.073263       -29.2050
  27   1.0000      -1.069096       -29.0916
  28   1.0000      -1.068490       -29.0751
  29   1.0000      -1.037670       -28.2364
  30   1.0000      -1.001726       -27.2584
  31   1.0000      -1.001429       -27.2503
  32   1.0000      -1.000594       -27.2275
  33   1.0000      -0.977948       -26.6113
  34   1.0000      -0.976260       -26.5654
  35   1.0000      -0.973123       -26.4800
  36   1.0000      -0.862435       -23.4681
  37   1.0000      -0.861711       -23.4483
  38   1.0000      -0.861538       -23.4436
  39   1.0000      -0.859634       -23.3918
  40   1.0000      -0.858945       -23.3731
  41   1.0000      -0.852937       -23.2096
  42   1.0000      -0.852249       -23.1909
  43   1.0000      -0.850986       -23.1565
  44   0.0000      -0.474439       -12.9102
  45   0.0000      -0.426375       -11.6023
  46   0.0000      -0.423751       -11.5308
  47   0.0000      -0.422788       -11.5047
  48   0.0000      -0.371836       -10.1182

                 SPIN DOWN ORBITALS
  NO   OCC          E(Eh)            E(eV)
   0   1.0000    -256.734930     -6986.1126
   1   1.0000     -30.638771      -833.7233
   2   1.0000     -26.508866      -721.3429
   3   1.0000     -26.508751      -721.3398
   4   1.0000     -26.508681      -721.3379
   5   1.0000     -19.691658      -535.8373
   6   1.0000     -19.691543      -535.8341
   7   1.0000     -19.691456      -535.8318
   8   1.0000     -19.691431      -535.8311
   9   1.0000     -19.691225      -535.8255
  10   1.0000     -19.691105      -535.8222
  11   1.0000      -4.001259      -108.8798
  12   1.0000      -2.762947       -75.1836
  13   1.0000      -2.762636       -75.1751
  14   1.0000      -2.762339       -75.1671
  15   1.0000      -1.559906       -42.4472
  16   1.0000      -1.549688       -42.1692
  17   1.0000      -1.549610       -42.1670
  18   1.0000      -1.548715       -42.1427
  19   1.0000      -1.547182       -42.1010
  20   1.0000      -1.546840       -42.0917
  21   1.0000      -1.071884       -29.1674
  22   1.0000      -1.070681       -29.1347
  23   1.0000      -1.070434       -29.1280
  24   1.0000      -1.070025       -29.1168
  25   1.0000      -1.069854       -29.1122
  26   1.0000      -1.069730       -29.1088
  27   1.0000      -1.024605       -27.8809
  28   1.0000      -0.981527       -26.7087
  29   1.0000      -0.980766       -26.6880
  30   1.0000      -0.965046       -26.2602
  31   1.0000      -0.963242       -26.2112
  32   1.0000      -0.959936       -26.1212
  33   1.0000      -0.860341       -23.4111
  34   1.0000      -0.859379       -23.3849
  35   1.0000      -0.857647       -23.3378
  36   1.0000      -0.849764       -23.1232
  37   1.0000      -0.847462       -23.0606
  38   1.0000      -0.846667       -23.0390
  39   0.0000      -0.664232       -18.0747
  40   0.0000      -0.664070       -18.0703
  41   0.0000      -0.663594       -18.0573
  42   0.0000      -0.613427       -16.6922
  43   0.0000      -0.613150       -16.6847

MULLIKEN ATOMIC CHARGES AND SPIN POPULATIONS
--------------------------------------------
   0 Fe:    1.464319    4.415297
   1 O :   -0.766338    0.091846
   2 H :    0.511878    0.002625
   3 O :   -0.766714    0.092017
   4 H :    0.509611    0.002573
   5 O :   -0.766629    0.092102
   6 H :    0.510649    0.002702
   7 O :   -0.766127    0.092070
   8 H :    0.510354    0.002784
   9 O :   -0.766582    0.092052
  10 H :    0.512782    0.002846
  11 O :   -0.766820    0.091929
  12 H :    0.510660    0.002696
  13 H :    0.512951    0.002870
  14 H :    0.511951    0.002788
  15 H :    0.510508    0.002816
  16 H :    0.509659    0.002573
  17 H :    0.512022    0.002639
  18 H :    0.511866    0.002774
Sum of atomic charges         :    3.0000000

LOEWDIN ATOMIC CHARGES AND SPIN POPULATIONS
-------------------------------------------
   0 Fe:    0.635558    4.386371
   1 O :   -0.374153    0.097582
   2 H :    0.384541    0.002172
   3 O :   -0.374236    0.097770
   4 H :    0.382729    0.002127
   5 O :   -0.373604    0.097861
   6 H :    0.383604    0.002233
   7 O :   -0.373927    0.097792
   8 H :    0.383356    0.002309
   9 O :   -0.374293    0.097797
  10 H :    0.385206    0.002373
  11 O :   -0.373771    0.097696
  12 H :    0.383590    0.002226
  13 H :    0.385354    0.002394
  14 H :    0.384600    0.002329
  15 H :    0.383448    0.002337
  16 H :    0.382769    0.002128
  17 H :    0.384690    0.002188
  18 H :    0.384538    0.002317

  Mayer bond orders larger than 0.100000
B(  0-Fe,  1-O ) :   0.4320 B(  0-Fe,  3-O ) :   0.4318 B(  0-Fe,  5-O ) :   0.4320
B(  0-Fe,  7-O ) :   0.4327 B(  0-Fe,  9-O ) :   0.4319 B(  0-Fe, 11-O ) :   0.4317
B(  1-O ,  2-H ) :   0.7013 B(  1-O , 15-H ) :   0.7024 B(  3-O ,  4-H ) :   0.7033
B(  3-O , 13-H ) :   0.7004 B(  5-O ,  6-H ) :   0.7024 B(  5-O , 18-H ) :   0.7014
B(  7-O ,  8-H ) :   0.7025 B(  7-O , 17-H ) :   0.7012 B(  9-O , 10-H ) :   0.7005
B(  9-O , 16-H ) :   0.7032 B( 11-O , 12-H ) :   0.7023 B( 11-O , 14-H ) :   0.7014

FINAL SINGLE POINT ENERGY     -1720.853342580249

DIPOLE MOMENT
-------------
                                X             Y             Z
Electronic contribution:     -0.00146      -0.00152      -0.00598
Nuclear contribution   :      0.00210       0.00569       0.00566
                        -----------------------------------------
Total Dipole Moment    :      0.00065       0.00416      -0.00032
                        -----------------------------------------
Magnitude (a.u.)       :      0.00422
Magnitude (Debye)      :      0.01074

Rotational constants in cm-1:     0.053715     0.052828     0.052032
Rotational constants in MHz :  1610.325129  1583.730332  1559.895059

                             ****ORCA TERMINATED NORMALLY****
TOTAL RUN TIME: 0 days 0 hours 0 minutes 15 seconds 229 msec
