                         Program Version 4.2.1 -  RELEASE  -
|  1> ! DFT B3LYP 6-31g TightSCF Grid5 NoFinalGrid SlowConv
|  2> %pal
|  3> nprocs 16
|  4> end
|  5> %method SpecialGridAtoms 26
|  6> SpecialGridIntAcc 7
|  7> end
|  8> %basis NewGTO 26 "CP(PPP)" end
|  9> end
| 10> # [Fe(CO)5]0 , s = 0 ,  m = 2s + 1
| 11> * xyz 0 1
| 12> Fe 0.006906  0.000706 -0.000006
| 13> C  1.813821 -0.001302 -0.001041
| 14> C -0.983320  1.516294  0.000213
| 15> C -0.981646 -1.516205  0.000956
| 16> C  0.076814  0.000959 -1.815825
| 17> C  0.077244  0.001856  1.815607
| 18> O  2.970190 -0.002554 -0.001386
| 19> O -1.640297  2.467354  0.000415
| 20> O -1.638062 -2.467624  0.001058
| 21> O  0.150834  0.001048 -2.964200
| 22> O  0.147516 -0.000532  2.964209
| 23> *
| 24> # Note that the EPR block needs to below the coordinate block for
| 25> # the “all Fe” command (all irons) to be recognized.
| 26> %eprnmr nuclei = all Fe {rho, fgrad}
| 27> end
| 28>
| 29>                          ****END OF INPUT****

CARTESIAN COORDINATES (ANGSTROEM)
---------------------------------
  Fe     0.006906    0.000706   -0.000006
  C      1.813821   -0.001302   -0.001041
  C     -0.983320    1.516294    0.000213
  C     -0.981646   -1.516205    0.000956
  C      0.076814    0.000959   -1.815825
  C      0.077244    0.001856    1.815607
  O      2.970190   -0.002554   -0.001386
  O     -1.640297    2.467354    0.000415
  O     -1.638062   -2.467624    0.001058
  O      0.150834    0.001048   -2.964200
  O      0.147516   -0.000532    2.964209

 Total Charge           Charge          ....    0
 Multiplicity           Mult            ....    1
 Number of Electrons    NEL             ....   96
 Basis Dimension        Dim             ....  150

ORBITAL ENERGIES
----------------

  NO   OCC          E(Eh)            E(eV)
   0   2.0000    -256.103874     -6968.9407
   1   2.0000     -30.068131      -818.1954
   2   2.0000     -25.938461      -705.8214
   3   2.0000     -25.924941      -705.4535
   4   2.0000     -25.922314      -705.3820
   5   2.0000     -19.269464      -524.3488
   6   2.0000     -19.269444      -524.3482
   7   2.0000     -19.253328      -523.9097
   8   2.0000     -19.253282      -523.9084
   9   2.0000     -19.252424      -523.8851
  10   2.0000     -10.351904      -281.6896
  11   2.0000     -10.351824      -281.6875
  12   2.0000     -10.336336      -281.2660
  13   2.0000     -10.336300      -281.2650
  14   2.0000     -10.336177      -281.2617
  15   2.0000      -3.484971       -94.8309
  16   2.0000      -2.274215       -61.8845
  17   2.0000      -2.251287       -61.2606
  18   2.0000      -2.245730       -61.1094
  19   2.0000      -1.199509       -32.6403
  20   2.0000      -1.198959       -32.6253
  21   2.0000      -1.180316       -32.1180
  22   2.0000      -1.180243       -32.1160
  23   2.0000      -1.179432       -32.0940
  24   2.0000      -0.631331       -17.1794
  25   2.0000      -0.586294       -15.9539
  26   2.0000      -0.575193       -15.6518
  27   2.0000      -0.573967       -15.6184
  28   2.0000      -0.570434       -15.5223
  29   2.0000      -0.515521       -14.0280
  30   2.0000      -0.506533       -13.7835
  31   2.0000      -0.502585       -13.6760
  32   2.0000      -0.497015       -13.5245
  33   2.0000      -0.495486       -13.4829
  34   2.0000      -0.492741       -13.4082
  35   2.0000      -0.479360       -13.0441
  36   2.0000      -0.477284       -12.9876
  37   2.0000      -0.469124       -12.7655
  38   2.0000      -0.469060       -12.7638
  39   2.0000      -0.467436       -12.7196
  40   2.0000      -0.464797       -12.6478
  41   2.0000      -0.453356       -12.3364
  42   2.0000      -0.450055       -12.2466
  43   2.0000      -0.434291       -11.8177
  44   2.0000      -0.312026        -8.4907
  45   2.0000      -0.308371        -8.3912
  46   2.0000      -0.258922        -7.0456
  47   2.0000      -0.250738        -6.8229
  48   0.0000      -0.062602        -1.7035
  49   0.0000      -0.057308        -1.5594
  50   0.0000      -0.051919        -1.4128
  51   0.0000      -0.050466        -1.3733
  52   0.0000      -0.044939        -1.2229

MULLIKEN ATOMIC CHARGES
-----------------------
   0 Fe:   -0.467103
   1 C :    0.353158
   2 C :    0.377145
   3 C :    0.377510
   4 C :    0.346821
   5 C :    0.346760
   6 O :   -0.267178
   7 O :   -0.264031
   8 O :   -0.263902
   9 O :   -0.269579
  10 O :   -0.269602
Sum of atomic charges:   -0.0000000

LOEWDIN ATOMIC CHARGES
----------------------
   0 Fe:   -1.293040
   1 C :    0.302561
   2 C :    0.309243
   3 C :    0.309332
   4 C :    0.312827
   5 C :    0.312850
   6 O :   -0.059175
   7 O :   -0.057992
   8 O :   -0.057920
   9 O :   -0.039336
  10 O :   -0.039350

  Mayer bond orders larger than 0.100000
B(  0-Fe,  1-C ) :   1.0620 B(  0-Fe,  2-C ) :   1.0742 B(  0-Fe,  3-C ) :   1.0740
B(  0-Fe,  4-C ) :   1.0541 B(  0-Fe,  5-C ) :   1.0543 B(  0-Fe,  6-O ) :   0.1915
B(  0-Fe,  7-O ) :   0.1863 B(  0-Fe,  8-O ) :   0.1862 B(  0-Fe,  9-O ) :   0.1870
B(  0-Fe, 10-O ) :   0.1870 B(  1-C ,  6-O ) :   2.0486 B(  2-C ,  7-O ) :   2.0590
B(  3-C ,  8-O ) :   2.0593 B(  4-C ,  9-O ) :   2.0541 B(  5-C , 10-O ) :   2.0540

FINAL SINGLE POINT ENERGY     -1829.887586120311

DIPOLE MOMENT
-------------
                                X             Y             Z
Electronic contribution:      0.00461       0.00243      -0.00017
Nuclear contribution   :     -0.02020      -0.00218       0.00003
                        -----------------------------------------
Total Dipole Moment    :     -0.01559       0.00025      -0.00014
                        -----------------------------------------
Magnitude (a.u.)       :      0.01559
Magnitude (Debye)      :      0.03963

Rotational constants in cm-1:     0.031176     0.027618     0.025894
Rotational constants in MHz :   934.632307   827.956670   776.278510

                             ****ORCA TERMINATED NORMALLY****
TOTAL RUN TIME: 0 days 0 hours 0 minutes 14 seconds 620 msec
