                         Program Version 4.2.1 -  RELEASE  -
|  1> ! DFT B3LYP 6-31g TightSCF Grid5 NoFinalGrid SlowConv
|  2> %pal
|  3> nprocs 16
|  4> end
|  5> %method SpecialGridAtoms 26
|  6> SpecialGridIntAcc 7
|  7> end
|  8> %basis NewGTO 26 "CP(PPP)" end
|  9> end
| 10> # [Fe(ll)(CN)6]4-  s = 0
| 11> * xyz -4 1
| 12> Fe -0.000066 -0.000034 -0.000001
| 13> C   1.919852  0.000060  0.000058
| 14> C  -1.920009  0.000054 -0.000022
| 15> C   0.000032  1.920036 -0.000011
| 16> C   0.000066 -1.920127 -0.000032
| 17> C   0.000011 -0.000031  1.920227
| 18> C  -0.000053 -0.000053 -1.920225
| 19> N   3.102102  0.000123  0.000098
| 20> N  -3.102222  0.000156 -0.000029
| 21> N   0.000149  3.102259 -0.000003
| 22> N   0.000158 -3.102340 -0.000061
| 23> N   0.000058 -0.000023  3.102487
| 24> N  -0.000078 -0.000080 -3.102486
| 25> *
| 26> # Note that the EPR block needs to below the coordinate block for
| 27> # the “all Fe” command (all irons) to be recognized.
| 28> %eprnmr nuclei = all Fe {rho, fgrad}
| 29> end
| 30>
| 31>                          ****END OF INPUT****

CARTESIAN COORDINATES (ANGSTROEM)
---------------------------------
  Fe    -0.000066   -0.000034   -0.000001
  C      1.919852    0.000060    0.000058
  C     -1.920009    0.000054   -0.000022
  C      0.000032    1.920036   -0.000011
  C      0.000066   -1.920127   -0.000032
  C      0.000011   -0.000031    1.920227
  C     -0.000053   -0.000053   -1.920225
  N      3.102102    0.000123    0.000098
  N     -3.102222    0.000156   -0.000029
  N      0.000149    3.102259   -0.000003
  N      0.000158   -3.102340   -0.000061
  N      0.000058   -0.000023    3.102487
  N     -0.000078   -0.000080   -3.102486

 Total Charge           Charge          ....   -4
 Multiplicity           Mult            ....    1
 Number of Electrons    NEL             ....  108
 Basis Dimension        Dim             ....  168

ORBITAL ENERGIES
----------------

  NO   OCC          E(Eh)            E(eV)
   0   2.0000    -255.434165     -6950.7170
   1   2.0000     -29.394237      -799.8578
   2   2.0000     -25.255124      -687.2269
   3   2.0000     -25.255123      -687.2268
   4   2.0000     -25.255122      -687.2268
   5   2.0000     -13.719127      -373.3164
   6   2.0000     -13.719120      -373.3162
   7   2.0000     -13.719108      -373.3159
   8   2.0000     -13.719101      -373.3157
   9   2.0000     -13.719096      -373.3156
  10   2.0000     -13.719079      -373.3151
  11   2.0000      -9.605549      -261.3803
  12   2.0000      -9.605527      -261.3797
  13   2.0000      -9.605516      -261.3794
  14   2.0000      -9.605480      -261.3784
  15   2.0000      -9.605458      -261.3778
  16   2.0000      -9.605447      -261.3775
  17   2.0000      -2.809448       -76.4490
  18   2.0000      -1.580716       -43.0135
  19   2.0000      -1.580713       -43.0134
  20   2.0000      -1.580711       -43.0133
  21   2.0000      -0.307010        -8.3542
  22   2.0000      -0.303495        -8.2585
  23   2.0000      -0.303488        -8.2583
  24   2.0000      -0.303476        -8.2580
  25   2.0000      -0.302384        -8.2283
  26   2.0000      -0.302372        -8.2280
  27   2.0000       0.083562         2.2738
  28   2.0000       0.165618         4.5067
  29   2.0000       0.165631         4.5071
  30   2.0000       0.165636         4.5072
  31   2.0000       0.175306         4.7703
  32   2.0000       0.175309         4.7704
  33   2.0000       0.230498         6.2722
  34   2.0000       0.230505         6.2723
  35   2.0000       0.230506         6.2724
  36   2.0000       0.233895         6.3646
  37   2.0000       0.239838         6.5263
  38   2.0000       0.239843         6.5265
  39   2.0000       0.239848         6.5266
  40   2.0000       0.258530         7.0350
  41   2.0000       0.258540         7.0352
  42   2.0000       0.267250         7.2722
  43   2.0000       0.267258         7.2724
  44   2.0000       0.267259         7.2725
  45   2.0000       0.279378         7.6023
  46   2.0000       0.279388         7.6025
  47   2.0000       0.279390         7.6026
  48   2.0000       0.300882         8.1874
  49   2.0000       0.300885         8.1875
  50   2.0000       0.300887         8.1875
  51   2.0000       0.383606        10.4384
  52   2.0000       0.383608        10.4385
  53   2.0000       0.383609        10.4385
  54   0.0000       0.604698        16.4547
  55   0.0000       0.608213        16.5503
  56   0.0000       0.608215        16.5504
  57   0.0000       0.608218        16.5505
  58   0.0000       0.632112        17.2006

MULLIKEN ATOMIC CHARGES
-----------------------
   0 Fe:   -1.108146
   1 C :    0.187733
   2 C :    0.187664
   3 C :    0.187695
   4 C :    0.187664
   5 C :    0.187693
   6 C :    0.187695
   7 N :   -0.669674
   8 N :   -0.669632
   9 N :   -0.669652
  10 N :   -0.669641
  11 N :   -0.669699
  12 N :   -0.669700
Sum of atomic charges:   -4.0000000

LOEWDIN ATOMIC CHARGES
----------------------
   0 Fe:   -1.393135
   1 C :    0.033275
   2 C :    0.033248
   3 C :    0.033239
   4 C :    0.033225
   5 C :    0.033222
   6 C :    0.033223
   7 N :   -0.467728
   8 N :   -0.467712
   9 N :   -0.467704
  10 N :   -0.467702
  11 N :   -0.467726
  12 N :   -0.467727

  Mayer bond orders larger than 0.100000
B(  0-Fe,  1-C ) :   0.9562 B(  0-Fe,  2-C ) :   0.9562 B(  0-Fe,  3-C ) :   0.9561
B(  0-Fe,  4-C ) :   0.9561 B(  0-Fe,  5-C ) :   0.9560 B(  0-Fe,  6-C ) :   0.9560
B(  0-Fe,  7-N ) :   0.1999 B(  0-Fe,  8-N ) :   0.1999 B(  0-Fe,  9-N ) :   0.1998
B(  0-Fe, 10-N ) :   0.1998 B(  0-Fe, 11-N ) :   0.1998 B(  0-Fe, 12-N ) :   0.1998
B(  1-C ,  7-N ) :   2.5668 B(  2-C ,  8-N ) :   2.5669 B(  3-C ,  9-N ) :   2.5669
B(  4-C , 10-N ) :   2.5669 B(  5-C , 11-N ) :   2.5669 B(  6-C , 12-N ) :   2.5669

FINAL SINGLE POINT ENERGY     -1819.805387811662

DIPOLE MOMENT
-------------
                                X             Y             Z
Electronic contribution:     -0.00036      -0.00018      -0.00001
Nuclear contribution   :      0.00019       0.00010       0.00000
                        -----------------------------------------
Total Dipole Moment    :     -0.00016      -0.00007      -0.00001
                        -----------------------------------------
Magnitude (a.u.)       :      0.00018
Magnitude (Debye)      :      0.00045

Rotational constants in cm-1:     0.023534     0.023532     0.023531
Rotational constants in MHz :   705.530186   705.481635   705.441925

                             ****ORCA TERMINATED NORMALLY****
TOTAL RUN TIME: 0 days 0 hours 0 minutes 18 seconds 347 msec
