                         Program Version 4.2.1 -  RELEASE  -
|  1> ! DFT B3LYP 6-31g TightSCF Grid5 NoFinalGrid SlowConv
|  2> %pal
|  3> nprocs 16
|  4> end
|  5> %method SpecialGridAtoms 26
|  6> SpecialGridIntAcc 7
|  7> end
|  8> %basis NewGTO 26 "CP(PPP)" end
|  9> end
| 10> # [Fe(ll)F6]4-  s = 2
| 11> * xyz -4 5
| 12> Fe -0.000035  0.000012  0.000014
| 13> F   2.116808 -0.003546  0.032360
| 14> F  -2.116824  0.001611 -0.030945
| 15> F  -0.003602  2.164955  0.001902
| 16> F   0.001648 -2.165219 -0.003295
| 17> F   0.032586  0.003638  2.109790
| 18> F  -0.030580 -0.001452 -2.109825
| 19> *
| 20> # Note that the EPR block needs to below the coordinate block for
| 21> # the “all Fe” command (all irons) to be recognized.
| 22> %eprnmr nuclei = all Fe {rho, fgrad}
| 23> end
| 24>
| 25>                          ****END OF INPUT****

CARTESIAN COORDINATES (ANGSTROEM)
---------------------------------
  Fe    -0.000035    0.000012    0.000014
  F      2.116808   -0.003546    0.032360
  F     -2.116824    0.001611   -0.030945
  F     -0.003602    2.164955    0.001902
  F      0.001648   -2.165219   -0.003295
  F      0.032586    0.003638    2.109790
  F     -0.030580   -0.001452   -2.109825

 Total Charge           Charge          ....   -4
 Multiplicity           Mult            ....    5
 Number of Electrons    NEL             ....   84
 Basis Dimension        Dim             ....  114

ORBITAL ENERGIES
----------------
                 SPIN UP ORBITALS
  NO   OCC          E(Eh)            E(eV)
   0   1.0000    -255.206382     -6944.5187
   1   1.0000     -29.178790      -793.9952
   2   1.0000     -25.056302      -681.8166
   3   1.0000     -25.025169      -680.9695
   4   1.0000     -25.024414      -680.9489
   5   1.0000     -23.803685      -647.7312
   6   1.0000     -23.803669      -647.7308
   7   1.0000     -23.798568      -647.5919
   8   1.0000     -23.798545      -647.5913
   9   1.0000     -23.792631      -647.4304
  10   1.0000     -23.792609      -647.4298
  11   1.0000      -2.684022       -73.0360
  12   1.0000      -1.504452       -40.9382
  13   1.0000      -1.440921       -39.2095
  14   1.0000      -1.439603       -39.1736
  15   1.0000      -0.267967        -7.2917
  16   1.0000      -0.264577        -7.1995
  17   1.0000      -0.259247        -7.0545
  18   1.0000      -0.259198        -7.0531
  19   1.0000      -0.252713        -6.8767
  20   1.0000      -0.252313        -6.8658
  21   1.0000       0.398486        10.8433
  22   1.0000       0.407562        11.0903
  23   1.0000       0.420541        11.4435
  24   1.0000       0.428621        11.6634
  25   1.0000       0.433888        11.8067
  26   1.0000       0.434449        11.8220
  27   1.0000       0.437003        11.8914
  28   1.0000       0.437583        11.9072
  29   1.0000       0.448201        12.1962
  30   1.0000       0.455298        12.3893
  31   1.0000       0.456862        12.4319
  32   1.0000       0.457987        12.4625
  33   1.0000       0.466744        12.7007
  34   1.0000       0.469890        12.7864
  35   1.0000       0.471614        12.8333
  36   1.0000       0.474878        12.9221
  37   1.0000       0.477786        13.0012
  38   1.0000       0.480056        13.0630
  39   1.0000       0.521611        14.1937
  40   1.0000       0.521644        14.1946
  41   1.0000       0.566879        15.4256
  42   1.0000       0.575293        15.6545
  43   1.0000       0.581296        15.8179
  44   0.0000       0.704860        19.1802
  45   0.0000       0.706956        19.2373
  46   0.0000       0.708314        19.2742
  47   0.0000       0.710416        19.3314
  48   0.0000       0.975433        26.5429

                 SPIN DOWN ORBITALS
  NO   OCC          E(Eh)            E(eV)
   0   1.0000    -255.206307     -6944.5167
   1   1.0000     -29.100479      -791.8643
   2   1.0000     -24.980676      -679.7587
   3   1.0000     -24.966258      -679.3664
   4   1.0000     -24.965819      -679.3545
   5   1.0000     -23.802044      -647.6865
   6   1.0000     -23.802028      -647.6861
   7   1.0000     -23.797132      -647.5529
   8   1.0000     -23.797109      -647.5523
   9   1.0000     -23.791363      -647.3959
  10   1.0000     -23.791342      -647.3953
  11   1.0000      -2.494630       -67.8823
  12   1.0000      -1.268481       -34.5171
  13   1.0000      -1.258836       -34.2547
  14   1.0000      -1.258525       -34.2462
  15   1.0000      -0.264541        -7.1985
  16   1.0000      -0.260989        -7.1019
  17   1.0000      -0.256068        -6.9680
  18   1.0000      -0.255928        -6.9642
  19   1.0000      -0.249979        -6.8023
  20   1.0000      -0.249435        -6.7875
  21   1.0000       0.408803        11.1241
  22   1.0000       0.435070        11.8389
  23   1.0000       0.439175        11.9506
  24   1.0000       0.441104        12.0031
  25   1.0000       0.443577        12.0703
  26   1.0000       0.449324        12.2267
  27   1.0000       0.452073        12.3015
  28   1.0000       0.453737        12.3468
  29   1.0000       0.454317        12.3626
  30   1.0000       0.458736        12.4828
  31   1.0000       0.459802        12.5119
  32   1.0000       0.461948        12.5702
  33   1.0000       0.468736        12.7550
  34   1.0000       0.472038        12.8448
  35   1.0000       0.473578        12.8867
  36   1.0000       0.477840        13.0027
  37   1.0000       0.480232        13.0678
  38   1.0000       0.481608        13.1052
  39   1.0000       0.655652        17.8412
  40   0.0000       0.705298        19.1921
  41   0.0000       0.707418        19.2498
  42   0.0000       0.708699        19.2847
  43   0.0000       0.710609        19.3367
  44   0.0000       0.810923        22.0663

MULLIKEN ATOMIC CHARGES AND SPIN POPULATIONS
--------------------------------------------
   0 Fe:    0.136015    3.846528
   1 F :   -0.686405    0.025417
   2 F :   -0.686391    0.025412
   3 F :   -0.696548    0.022053
   4 F :   -0.696616    0.022027
   5 F :   -0.685027    0.029285
   6 F :   -0.685029    0.029278
Sum of atomic charges         :   -4.0000000

LOEWDIN ATOMIC CHARGES AND SPIN POPULATIONS
-------------------------------------------
   0 Fe:   -0.321066    3.817918
   1 F :   -0.608162    0.030203
   2 F :   -0.608136    0.030199
   3 F :   -0.626304    0.026337
   4 F :   -0.626419    0.026308
   5 F :   -0.604952    0.034522
   6 F :   -0.604961    0.034513

  Mayer bond orders larger than 0.100000
B(  0-Fe,  1-F ) :   0.5565 B(  0-Fe,  2-F ) :   0.5566 B(  0-Fe,  3-F ) :   0.5403
B(  0-Fe,  4-F ) :   0.5402 B(  0-Fe,  5-F ) :   0.5585 B(  0-Fe,  6-F ) :   0.5585

FINAL SINGLE POINT ENERGY     -1861.711660684972

DIPOLE MOMENT
-------------
                                X             Y             Z
Electronic contribution:     -0.00012       0.00025       0.00012
Nuclear contribution   :      0.00002      -0.00001      -0.00001
                        -----------------------------------------
Total Dipole Moment    :     -0.00010       0.00024       0.00011
                        -----------------------------------------
Magnitude (a.u.)       :      0.00028
Magnitude (Debye)      :      0.00072

Rotational constants in cm-1:     0.049663     0.049186     0.047758
Rotational constants in MHz :  1488.870011  1474.549726  1431.762849

                             ****ORCA TERMINATED NORMALLY****
TOTAL RUN TIME: 0 days 0 hours 0 minutes 14 seconds 684 msec
