                         Program Version 4.2.1 -  RELEASE  -
|  1> ! UKS B3LYP 6-31g TightSCF Grid5 NoFinalGrid SlowConv
|  2> %pal
|  3> nprocs 8
|  4> end
|  5> %method SpecialGridAtoms 26
|  6> SpecialGridIntAcc 7
|  7> end
|  8> %basis NewGTO 26 "CP(PPP)" end
|  9> end
| 10> * xyz 0 1
| 11>  Fe -0.005543 -0.010542 0.000078
| 12>  Cl 2.340289 -0.142823 0.000187
| 13>  Cl -0.915720 2.154368 -0.000255
| 14>  Cl -0.709682 -1.000364 -2.005230
| 15>  Cl -0.709344 -1.000639 2.005220
| 16> *
| 17> # Note that the EPR block needs to below the coordinate block for the “all Fe” command (all irons) to be recognized.
| 18> %eprnmr nuclei = all Fe {rho, fgrad}
| 19> end
| 20>
| 21>                          ****END OF INPUT****

CARTESIAN COORDINATES (ANGSTROEM)
---------------------------------
  Fe    -0.005543   -0.010542    0.000078
  Cl     2.340289   -0.142823    0.000187
  Cl    -0.915720    2.154368   -0.000255
  Cl    -0.709682   -1.000364   -2.005230
  Cl    -0.709344   -1.000639    2.005220

 Total Charge           Charge          ....    0
 Multiplicity           Mult            ....    1
 Number of Electrons    NEL             ....   94
 Basis Dimension        Dim             ....  112

ORBITAL ENERGIES
----------------
                 SPIN UP ORBITALS
  NO   OCC          E(Eh)            E(eV)
   0   1.0000    -256.241744     -6972.6923
   1   1.0000    -101.573122     -2763.9452
   2   1.0000    -101.573107     -2763.9448
   3   1.0000    -101.572801     -2763.9364
   4   1.0000    -101.572741     -2763.9348
   5   1.0000     -30.185683      -821.3942
   6   1.0000     -26.049176      -708.8341
   7   1.0000     -26.048045      -708.8033
   8   1.0000     -26.047551      -708.7899
   9   1.0000      -9.502648      -258.5802
  10   1.0000      -9.502617      -258.5794
  11   1.0000      -9.502266      -258.5698
  12   1.0000      -9.502194      -258.5678
  13   1.0000      -7.264418      -197.6749
  14   1.0000      -7.264401      -197.6744
  15   1.0000      -7.264082      -197.6657
  16   1.0000      -7.264019      -197.6640
  17   1.0000      -7.256816      -197.4680
  18   1.0000      -7.256803      -197.4677
  19   1.0000      -7.256647      -197.4634
  20   1.0000      -7.256621      -197.4627
  21   1.0000      -7.256380      -197.4561
  22   1.0000      -7.256304      -197.4541
  23   1.0000      -7.256304      -197.4541
  24   1.0000      -7.256241      -197.4523
  25   1.0000      -3.604886       -98.0939
  26   1.0000      -2.375431       -64.6388
  27   1.0000      -2.374090       -64.6023
  28   1.0000      -2.373325       -64.5815
  29   1.0000      -0.843834       -22.9619
  30   1.0000      -0.836634       -22.7660
  31   1.0000      -0.835950       -22.7474
  32   1.0000      -0.835082       -22.7237
  33   1.0000      -0.434406       -11.8208
  34   1.0000      -0.431632       -11.7453
  35   1.0000      -0.423642       -11.5279
  36   1.0000      -0.415339       -11.3019
  37   1.0000      -0.412064       -11.2128
  38   1.0000      -0.411448       -11.1961
  39   1.0000      -0.374590       -10.1931
  40   1.0000      -0.374209       -10.1827
  41   1.0000      -0.371287       -10.1032
  42   1.0000      -0.346301        -9.4233
  43   1.0000      -0.346081        -9.4173
  44   1.0000      -0.344370        -9.3708
  45   1.0000      -0.342843        -9.3292
  46   1.0000      -0.342439        -9.3182
  47   0.0000      -0.249129        -6.7791
  48   0.0000      -0.248415        -6.7597
  49   0.0000      -0.240772        -6.5517
  50   0.0000      -0.023201        -0.6313
  51   0.0000       0.034642         0.9427

                 SPIN DOWN ORBITALS
  NO   OCC          E(Eh)            E(eV)
   0   1.0000    -256.241744     -6972.6923
   1   1.0000    -101.573122     -2763.9452
   2   1.0000    -101.573107     -2763.9448
   3   1.0000    -101.572801     -2763.9364
   4   1.0000    -101.572741     -2763.9348
   5   1.0000     -30.185683      -821.3942
   6   1.0000     -26.049176      -708.8341
   7   1.0000     -26.048045      -708.8033
   8   1.0000     -26.047551      -708.7899
   9   1.0000      -9.502648      -258.5802
  10   1.0000      -9.502617      -258.5794
  11   1.0000      -9.502266      -258.5698
  12   1.0000      -9.502194      -258.5678
  13   1.0000      -7.264418      -197.6749
  14   1.0000      -7.264401      -197.6744
  15   1.0000      -7.264082      -197.6657
  16   1.0000      -7.264019      -197.6640
  17   1.0000      -7.256816      -197.4680
  18   1.0000      -7.256803      -197.4677
  19   1.0000      -7.256647      -197.4634
  20   1.0000      -7.256621      -197.4627
  21   1.0000      -7.256380      -197.4561
  22   1.0000      -7.256304      -197.4541
  23   1.0000      -7.256304      -197.4541
  24   1.0000      -7.256241      -197.4523
  25   1.0000      -3.604886       -98.0939
  26   1.0000      -2.375431       -64.6388
  27   1.0000      -2.374090       -64.6023
  28   1.0000      -2.373325       -64.5815
  29   1.0000      -0.843834       -22.9619
  30   1.0000      -0.836634       -22.7660
  31   1.0000      -0.835950       -22.7474
  32   1.0000      -0.835082       -22.7237
  33   1.0000      -0.434406       -11.8208
  34   1.0000      -0.431632       -11.7453
  35   1.0000      -0.423642       -11.5279
  36   1.0000      -0.415339       -11.3019
  37   1.0000      -0.412064       -11.2128
  38   1.0000      -0.411448       -11.1961
  39   1.0000      -0.374590       -10.1931
  40   1.0000      -0.374209       -10.1827
  41   1.0000      -0.371287       -10.1032
  42   1.0000      -0.346301        -9.4233
  43   1.0000      -0.346081        -9.4173
  44   1.0000      -0.344370        -9.3708
  45   1.0000      -0.342843        -9.3292
  46   1.0000      -0.342439        -9.3182
  47   0.0000      -0.249129        -6.7791
  48   0.0000      -0.248415        -6.7597
  49   0.0000      -0.240772        -6.5517
  50   0.0000      -0.023201        -0.6313
  51   0.0000       0.034642         0.9427

MULLIKEN ATOMIC CHARGES AND SPIN POPULATIONS
--------------------------------------------
   0 Fe:    0.403124    0.000000
   1 Cl:   -0.101694    0.000000
   2 Cl:   -0.100821    0.000000
   3 Cl:   -0.100331    0.000000
   4 Cl:   -0.100277    0.000000
Sum of atomic charges         :    0.0000000

LOEWDIN ATOMIC CHARGES AND SPIN POPULATIONS
-------------------------------------------
   0 Fe:   -0.018010    0.000000
   1 Cl:    0.003375    0.000000
   2 Cl:    0.004192    0.000000
   3 Cl:    0.005191    0.000000
   4 Cl:    0.005253    0.000000

  Mayer bond orders larger than 0.100000
B(  0-Fe,  1-Cl) :   1.2093 B(  0-Fe,  2-Cl) :   1.2103 B(  0-Fe,  3-Cl) :   1.2111
B(  0-Fe,  4-Cl) :   1.2111

FINAL SINGLE POINT ENERGY     -3104.140143817774

DIPOLE MOMENT
-------------
                                X             Y             Z
Electronic contribution:     -0.01786      -0.03023       0.00031
Nuclear contribution   :      0.00733       0.01394      -0.00010
                        -----------------------------------------
Total Dipole Moment    :     -0.01053      -0.01628       0.00021
                        -----------------------------------------
Magnitude (a.u.)       :      0.01939
Magnitude (Debye)      :      0.04929

Rotational constants in cm-1:     0.033997     0.033750     0.029753
Rotational constants in MHz :  1019.212481  1011.800376   891.974021

                             ****ORCA TERMINATED NORMALLY****
TOTAL RUN TIME: 0 days 0 hours 0 minutes 16 seconds 529 msec
