                         Program Version 4.2.1 -  RELEASE  -
|  1> ! DFT B3LYP 6-31g TightSCF Grid5 NoFinalGrid SlowConv
|  2> %pal
|  3> nprocs 16
|  4> end
|  5> %method SpecialGridAtoms 26
|  6> SpecialGridIntAcc 7
|  7> end
|  8> %basis NewGTO 26 "CP(PPP)" end
|  9> end
| 10> # [Fe(lll)(Cl)6]3-  s = 5/2
| 11> * xyz -3 6
| 12> Fe  0.000037  0.000019 -0.000000
| 13> Cl  2.445792 -0.000009 -0.000009
| 14> Cl -2.445812 -0.000009  0.000009
| 15> Cl -0.000008  2.445861  0.000004
| 16> Cl -0.000008 -2.445864 -0.000004
| 17> Cl -0.000009  0.000006  2.445920
| 18> Cl  0.000008 -0.000003 -2.445920
| 19> *
| 20> # Note that the EPR block needs to below the coordinate block for
| 21> # the “all Fe” command (all irons) to be recognized.
| 22> %eprnmr nuclei = all Fe {rho, fgrad}
| 23> end
| 24>
| 25>                          ****END OF INPUT****

CARTESIAN COORDINATES (ANGSTROEM)
---------------------------------
  Fe     0.000037    0.000019   -0.000000
  Cl     2.445792   -0.000009   -0.000009
  Cl    -2.445812   -0.000009    0.000009
  Cl    -0.000008    2.445861    0.000004
  Cl    -0.000008   -2.445864   -0.000004
  Cl    -0.000009    0.000006    2.445920
  Cl     0.000008   -0.000003   -2.445920

 Total Charge           Charge          ....   -3
 Multiplicity           Mult            ....    6
 Number of Electrons    NEL             ....  131
 Basis Dimension        Dim             ....  138

ORBITAL ENERGIES
----------------
                 SPIN UP ORBITALS
  NO   OCC          E(Eh)            E(eV)
   0   1.0000    -255.754725     -6959.4399
   1   1.0000    -101.027722     -2749.1041
   2   1.0000    -101.027714     -2749.1039
   3   1.0000    -101.027712     -2749.1038
   4   1.0000    -101.027709     -2749.1037
   5   1.0000    -101.027689     -2749.1032
   6   1.0000    -101.027686     -2749.1031
   7   1.0000     -29.746933      -809.4552
   8   1.0000     -25.600949      -696.6372
   9   1.0000     -25.600949      -696.6372
  10   1.0000     -25.600948      -696.6372
  11   1.0000      -8.958514      -243.7736
  12   1.0000      -8.958504      -243.7733
  13   1.0000      -8.958500      -243.7732
  14   1.0000      -8.958497      -243.7731
  15   1.0000      -8.958433      -243.7714
  16   1.0000      -8.958429      -243.7713
  17   1.0000      -6.718664      -182.8241
  18   1.0000      -6.718658      -182.8240
  19   1.0000      -6.718647      -182.8237
  20   1.0000      -6.718644      -182.8236
  21   1.0000      -6.718640      -182.8235
  22   1.0000      -6.718629      -182.8232
  23   1.0000      -6.713956      -182.6960
  24   1.0000      -6.713955      -182.6960
  25   1.0000      -6.713951      -182.6959
  26   1.0000      -6.713945      -182.6957
  27   1.0000      -6.713945      -182.6957
  28   1.0000      -6.713943      -182.6957
  29   1.0000      -6.713924      -182.6952
  30   1.0000      -6.713922      -182.6951
  31   1.0000      -6.713921      -182.6951
  32   1.0000      -6.713898      -182.6944
  33   1.0000      -6.713896      -182.6944
  34   1.0000      -6.713895      -182.6944
  35   1.0000      -3.237363       -88.0931
  36   1.0000      -2.011741       -54.7423
  37   1.0000      -2.011741       -54.7423
  38   1.0000      -2.011741       -54.7423
  39   1.0000      -0.328861        -8.9488
  40   1.0000      -0.311933        -8.4881
  41   1.0000      -0.311927        -8.4880
  42   1.0000      -0.311922        -8.4878
  43   1.0000      -0.308255        -8.3880
  44   1.0000      -0.308249        -8.3879
  45   1.0000      -0.029585        -0.8050
  46   1.0000      -0.029582        -0.8050
  47   1.0000      -0.025090        -0.6827
  48   1.0000      -0.025090        -0.6827
  49   1.0000      -0.025089        -0.6827
  50   1.0000       0.056098         1.5265
  51   1.0000       0.105740         2.8773
  52   1.0000       0.105743         2.8774
  53   1.0000       0.105746         2.8775
  54   1.0000       0.139625         3.7994
  55   1.0000       0.139627         3.7995
  56   1.0000       0.139630         3.7995
  57   1.0000       0.162387         4.4188
  58   1.0000       0.162388         4.4188
  59   1.0000       0.162388         4.4188
  60   1.0000       0.162889         4.4324
  61   1.0000       0.162891         4.4325
  62   1.0000       0.162892         4.4325
  63   1.0000       0.174871         4.7585
  64   1.0000       0.174873         4.7585
  65   1.0000       0.180900         4.9225
  66   1.0000       0.180901         4.9226
  67   1.0000       0.180901         4.9226
  68   0.0000       0.465381        12.6637
  69   0.0000       0.493314        13.4238
  70   0.0000       0.493316        13.4238
  71   0.0000       0.493317        13.4238
  72   0.0000       0.539962        14.6931

                 SPIN DOWN ORBITALS
  NO   OCC          E(Eh)            E(eV)
   0   1.0000    -255.754509     -6959.4340
   1   1.0000    -101.026588     -2749.0732
   2   1.0000    -101.026581     -2749.0730
   3   1.0000    -101.026579     -2749.0730
   4   1.0000    -101.026576     -2749.0729
   5   1.0000    -101.026556     -2749.0724
   6   1.0000    -101.026553     -2749.0723
   7   1.0000     -29.655967      -806.9799
   8   1.0000     -25.526043      -694.5989
   9   1.0000     -25.526043      -694.5989
  10   1.0000     -25.526043      -694.5989
  11   1.0000      -8.957420      -243.7438
  12   1.0000      -8.957409      -243.7435
  13   1.0000      -8.957406      -243.7434
  14   1.0000      -8.957403      -243.7433
  15   1.0000      -8.957339      -243.7416
  16   1.0000      -8.957335      -243.7415
  17   1.0000      -6.716126      -182.7551
  18   1.0000      -6.716120      -182.7549
  19   1.0000      -6.716109      -182.7546
  20   1.0000      -6.716106      -182.7545
  21   1.0000      -6.716102      -182.7544
  22   1.0000      -6.716091      -182.7541
  23   1.0000      -6.712857      -182.6661
  24   1.0000      -6.712856      -182.6661
  25   1.0000      -6.712852      -182.6660
  26   1.0000      -6.712847      -182.6658
  27   1.0000      -6.712846      -182.6658
  28   1.0000      -6.712844      -182.6658
  29   1.0000      -6.712825      -182.6653
  30   1.0000      -6.712823      -182.6652
  31   1.0000      -6.712822      -182.6652
  32   1.0000      -6.712799      -182.6645
  33   1.0000      -6.712797      -182.6645
  34   1.0000      -6.712796      -182.6645
  35   1.0000      -3.023418       -82.2714
  36   1.0000      -1.785858       -48.5957
  37   1.0000      -1.785858       -48.5957
  38   1.0000      -1.785857       -48.5957
  39   1.0000      -0.321473        -8.7477
  40   1.0000      -0.304563        -8.2876
  41   1.0000      -0.304558        -8.2874
  42   1.0000      -0.304553        -8.2873
  43   1.0000      -0.299833        -8.1589
  44   1.0000      -0.299827        -8.1587
  45   1.0000       0.068921         1.8754
  46   1.0000       0.111465         3.0331
  47   1.0000       0.111475         3.0334
  48   1.0000       0.115869         3.1530
  49   1.0000       0.115872         3.1530
  50   1.0000       0.115874         3.1531
  51   1.0000       0.127699         3.4749
  52   1.0000       0.127703         3.4750
  53   1.0000       0.127708         3.4751
  54   1.0000       0.167940         4.5699
  55   1.0000       0.167941         4.5699
  56   1.0000       0.167942         4.5699
  57   1.0000       0.169709         4.6180
  58   1.0000       0.169711         4.6181
  59   1.0000       0.169712         4.6181
  60   1.0000       0.185856         5.0574
  61   1.0000       0.185857         5.0574
  62   1.0000       0.185857         5.0574
  63   0.0000       0.309424         8.4199
  64   0.0000       0.309425         8.4199
  65   0.0000       0.309425         8.4199
  66   0.0000       0.324864         8.8400
  67   0.0000       0.324871         8.8402

MULLIKEN ATOMIC CHARGES AND SPIN POPULATIONS
--------------------------------------------
   0 Fe:    0.500860    4.202867
   1 Cl:   -0.583419    0.132870
   2 Cl:   -0.583469    0.132858
   3 Cl:   -0.583467    0.132857
   4 Cl:   -0.583488    0.132853
   5 Cl:   -0.583509    0.132847
   6 Cl:   -0.583509    0.132847
Sum of atomic charges         :   -3.0000000

LOEWDIN ATOMIC CHARGES AND SPIN POPULATIONS
-------------------------------------------
   0 Fe:   -0.100633    4.185491
   1 Cl:   -0.483164    0.135766
   2 Cl:   -0.483218    0.135754
   3 Cl:   -0.483217    0.135754
   4 Cl:   -0.483240    0.135749
   5 Cl:   -0.483264    0.135743
   6 Cl:   -0.483264    0.135743

  Mayer bond orders larger than 0.100000
B(  0-Fe,  1-Cl) :   0.6821 B(  0-Fe,  2-Cl) :   0.6821 B(  0-Fe,  3-Cl) :   0.6821
B(  0-Fe,  4-Cl) :   0.6820 B(  0-Fe,  5-Cl) :   0.6820 B(  0-Fe,  6-Cl) :   0.6820

FINAL SINGLE POINT ENERGY     -4024.513983986330

DIPOLE MOMENT
-------------
                                X             Y             Z
Electronic contribution:      0.00029       0.00013      -0.00000
Nuclear contribution   :     -0.00005      -0.00003       0.00000
                        -----------------------------------------
Total Dipole Moment    :      0.00024       0.00011      -0.00000
                        -----------------------------------------
Magnitude (a.u.)       :      0.00026
Magnitude (Debye)      :      0.00066

Rotational constants in cm-1:     0.019872     0.019871     0.019871
Rotational constants in MHz :   595.732724   595.718412   595.703594

                             ****ORCA TERMINATED NORMALLY****
TOTAL RUN TIME: 0 days 0 hours 0 minutes 15 seconds 918 msec
