                         Program Version 4.2.1 -  RELEASE  -
|  1> ! DFT B3LYP def2-TZVPP TightSCF Grid5 NoFinalGrid SlowConv
|  2> %pal
|  3> nprocs 8
|  4> end
|  5> %method SpecialGridAtoms 26
|  6> SpecialGridIntAcc 7
|  7> end
|  8> %basis NewGTO 26 "CP(PPP)" end
|  9> end
| 10> * xyz 0 1
| 11>  Fe  0.002291  0.001525 -0.000013
| 12>  Cl  2.234628 -0.003950  0.000015
| 13>  Cl -0.749004  2.103068  0.000006
| 14>  Cl -0.743967 -1.050327 -1.821818
| 15>  Cl -0.743948 -1.050316  1.821811
| 16> *
| 17> # Note that the EPR block needs to below the coordinate block for the “all Fe” command (all irons) to be recognized.
| 18> %eprnmr nuclei = all Fe {rho, fgrad}
| 19> end
| 20>
| 21>                          ****END OF INPUT****

CARTESIAN COORDINATES (ANGSTROEM)
---------------------------------
  Fe     0.002291    0.001525   -0.000013
  Cl     2.234628   -0.003950    0.000015
  Cl    -0.749004    2.103068    0.000006
  Cl    -0.743967   -1.050327   -1.821818
  Cl    -0.743948   -1.050316    1.821811

 Total Charge           Charge          ....    0
 Multiplicity           Mult            ....    1
 Number of Electrons    NEL             ....   94
 Basis Dimension        Dim             ....  228

ORBITAL ENERGIES
----------------

  NO   OCC          E(Eh)            E(eV)
   0   2.0000    -256.229329     -6972.3545
   1   2.0000    -101.560245     -2763.5948
   2   2.0000    -101.560211     -2763.5938
   3   2.0000    -101.560193     -2763.5933
   4   2.0000    -101.560191     -2763.5933
   5   2.0000     -30.177114      -821.1610
   6   2.0000     -26.039401      -708.5681
   7   2.0000     -26.039332      -708.5663
   8   2.0000     -26.039246      -708.5639
   9   2.0000      -9.490446      -258.2482
  10   2.0000      -9.490410      -258.2472
  11   2.0000      -9.490391      -258.2467
  12   2.0000      -9.490386      -258.2465
  13   2.0000      -7.250200      -197.2880
  14   2.0000      -7.250167      -197.2871
  15   2.0000      -7.250149      -197.2866
  16   2.0000      -7.250146      -197.2865
  17   2.0000      -7.244438      -197.1312
  18   2.0000      -7.244426      -197.1309
  19   2.0000      -7.244400      -197.1301
  20   2.0000      -7.244389      -197.1298
  21   2.0000      -7.244382      -197.1296
  22   2.0000      -7.244379      -197.1296
  23   2.0000      -7.244366      -197.1292
  24   2.0000      -7.244365      -197.1292
  25   2.0000      -3.592317       -97.7519
  26   2.0000      -2.361459       -64.2586
  27   2.0000      -2.361355       -64.2557
  28   2.0000      -2.361232       -64.2524
  29   2.0000      -0.841464       -22.8974
  30   2.0000      -0.831359       -22.6224
  31   2.0000      -0.831281       -22.6203
  32   2.0000      -0.831273       -22.6201
  33   2.0000      -0.430388       -11.7115
  34   2.0000      -0.427582       -11.6351
  35   2.0000      -0.427515       -11.6333
  36   2.0000      -0.415673       -11.3110
  37   2.0000      -0.415614       -11.3094
  38   2.0000      -0.415561       -11.3080
  39   2.0000      -0.374425       -10.1886
  40   2.0000      -0.374251       -10.1839
  41   2.0000      -0.374241       -10.1836
  42   2.0000      -0.341046        -9.2803
  43   2.0000      -0.340959        -9.2780
  44   2.0000      -0.340932        -9.2772
  45   2.0000      -0.331104        -9.0098
  46   2.0000      -0.331102        -9.0097
  47   0.0000      -0.222903        -6.0655
  48   0.0000      -0.222646        -6.0585
  49   0.0000      -0.222581        -6.0567
  50   0.0000       0.006748         0.1836
  51   0.0000       0.053026         1.4429

MULLIKEN ATOMIC CHARGES
-----------------------
   0 Fe:    0.740507
   1 Cl:   -0.185545
   2 Cl:   -0.185139
   3 Cl:   -0.184913
   4 Cl:   -0.184911
Sum of atomic charges:   -0.0000000

LOEWDIN ATOMIC CHARGES
----------------------
   0 Fe:    0.028902
   1 Cl:   -0.007563
   2 Cl:   -0.007129
   3 Cl:   -0.007105
   4 Cl:   -0.007105

  Mayer bond orders larger than 0.100000
B(  0-Fe,  1-Cl) :   1.1557 B(  0-Fe,  2-Cl) :   1.1563 B(  0-Fe,  3-Cl) :   1.1565
B(  0-Fe,  4-Cl) :   1.1565

FINAL SINGLE POINT ENERGY     -3104.343842834083

DIPOLE MOMENT
-------------
                                X             Y             Z
Electronic contribution:      0.00430       0.00361      -0.00003
Nuclear contribution   :     -0.00303      -0.00202       0.00002
                        -----------------------------------------
Total Dipole Moment    :      0.00127       0.00159      -0.00001
                        -----------------------------------------
Magnitude (a.u.)       :      0.00204
Magnitude (Debye)      :      0.00518

Rotational constants in cm-1:     0.035868     0.035776     0.035724
Rotational constants in MHz :  1075.295541  1072.541011  1070.986462

                             ****ORCA TERMINATED NORMALLY****
TOTAL RUN TIME: 0 days 0 hours 0 minutes 29 seconds 865 msec
