                         Program Version 4.2.1 -  RELEASE  -
|  1> ! DFT B3LYP 6-31g TightSCF Grid5 NoFinalGrid SlowConv
|  2> %pal
|  3> nprocs 16
|  4> end
|  5> %method SpecialGridAtoms 26
|  6> SpecialGridIntAcc 7
|  7> end
|  8> %basis NewGTO 26 "CP(PPP)" end
|  9> end
| 10> # [{Fe-NO}^6]1+ , s = 0 ,  m = 2s + 1
| 11> * xyz 1 1
| 12> Fe -0.010636 -0.716003 0.015193
| 13> N -0.042760 -2.359927 0.030934
| 14> O -0.061686 -3.504857 0.042343
| 15> S -1.659863 -0.495151 -1.535905
| 16> S -1.590919 -0.601401 1.731035
| 17> S 1.553915 -0.658132 -1.714924
| 18> S 1.664445 -0.527901 1.545733
| 19> C -5.532556 -0.189292 0.871724
| 20> C -5.569698 -0.075587 -0.524263
| 21> C -4.381712 -0.142477 -1.249798
| 22> C -3.169876 -0.287983 -0.563573
| 23> C -3.111323 -0.395587 0.835185
| 24> C -4.326363 -0.352476 1.546124
| 25> C 3.082227 -0.410070 -0.844987
| 26> C 3.159303 -0.296358 0.552016
| 27> C 4.285757 -0.353256 -1.574588
| 28> C 5.499970 -0.175258 -0.918501
| 29> C 5.555459 -0.052951 0.476240
| 30> C 4.379287 -0.132023 1.219897
| 31> C -1.226023 1.223650 -2.074233
| 32> C 1.251444 1.185661 2.108119
| 33> C 0.668496 1.994983 0.997940
| 34> C -0.613379 2.012660 -0.965422
| 35> N 0.021203 1.319586 0.013748
| 36> C -0.622301 3.405351 -0.979640
| 37> C 0.716130 3.386430 1.011630
| 38> C 0.060246 4.102831 0.013880
| 39> H -6.455089 -0.165674 1.444119
| 40> H -6.517470 0.045086 -1.039736
| 41> H -4.392562 -0.089317 -2.335228
| 42> H -4.314415 -0.445267 2.628080
| 43> H 4.256936 -0.451134 -2.655724
| 44> H 6.414464 -0.145567 -1.503284
| 45> H 6.509339 0.079849 0.977155
| 46> H 4.407342 -0.072268 2.304692
| 47> H -2.122614 1.686083 -2.488925
| 48> H -0.494972 1.069820 -2.874533
| 49> H 2.151770 1.628398 2.535723
| 50> H 0.510214 1.036317 2.899768
| 51> H -1.145173 3.925295 -1.774483
| 52> H 1.247834 3.892508 1.809409
| 53> H 0.078592 5.187712 0.012458
| 54> *
| 55> # Note that the EPR block needs to below the coordinate block for
| 56> # the “all Fe” command (all irons) to be recognized.
| 57> %eprnmr nuclei = all Fe {rho, fgrad}
| 58> end
| 59>
| 60>                          ****END OF INPUT****

CARTESIAN COORDINATES (ANGSTROEM)
---------------------------------
  Fe    -0.010636   -0.716003    0.015193
  N     -0.042760   -2.359927    0.030934
  O     -0.061686   -3.504857    0.042343
  S     -1.659863   -0.495151   -1.535905
  S     -1.590919   -0.601401    1.731035
  S      1.553915   -0.658132   -1.714924
  S      1.664445   -0.527901    1.545733
  C     -5.532556   -0.189292    0.871724
  C     -5.569698   -0.075587   -0.524263
  C     -4.381712   -0.142477   -1.249798
  C     -3.169876   -0.287983   -0.563573
  C     -3.111323   -0.395587    0.835185
  C     -4.326363   -0.352476    1.546124
  C      3.082227   -0.410070   -0.844987
  C      3.159303   -0.296358    0.552016
  C      4.285757   -0.353256   -1.574588
  C      5.499970   -0.175258   -0.918501
  C      5.555459   -0.052951    0.476240
  C      4.379287   -0.132023    1.219897
  C     -1.226023    1.223650   -2.074233
  C      1.251444    1.185661    2.108119
  C      0.668496    1.994983    0.997940
  C     -0.613379    2.012660   -0.965422
  N      0.021203    1.319586    0.013748
  C     -0.622301    3.405351   -0.979640
  C      0.716130    3.386430    1.011630
  C      0.060246    4.102831    0.013880
  H     -6.455089   -0.165674    1.444119
  H     -6.517470    0.045086   -1.039736
  H     -4.392562   -0.089317   -2.335228
  H     -4.314415   -0.445267    2.628080
  H      4.256936   -0.451134   -2.655724
  H      6.414464   -0.145567   -1.503284
  H      6.509339    0.079849    0.977155
  H      4.407342   -0.072268    2.304692
  H     -2.122614    1.686083   -2.488925
  H     -0.494972    1.069820   -2.874533
  H      2.151770    1.628398    2.535723
  H      0.510214    1.036317    2.899768
  H     -1.145173    3.925295   -1.774483
  H      1.247834    3.892508    1.809409
  H      0.078592    5.187712    0.012458

 Total Charge           Charge          ....    1
 Multiplicity           Mult            ....    1
 Number of Electrons    NEL             ....  240
 Basis Dimension        Dim             ....  340

ORBITAL ENERGIES
----------------

  NO   OCC          E(Eh)            E(eV)
   0   2.0000    -256.235103     -6972.5116
   1   2.0000     -89.045288     -2423.0455
   2   2.0000     -89.045259     -2423.0447
   3   2.0000     -88.954976     -2420.5880
   4   2.0000     -88.954432     -2420.5731
   5   2.0000     -30.191119      -821.5421
   6   2.0000     -26.062638      -709.2004
   7   2.0000     -26.050742      -708.8767
   8   2.0000     -26.043781      -708.6873
   9   2.0000     -19.440509      -529.0031
  10   2.0000     -14.670041      -399.1921
  11   2.0000     -14.525720      -395.2649
  12   2.0000     -10.393947      -282.8337
  13   2.0000     -10.393821      -282.8302
  14   2.0000     -10.365888      -282.0702
  15   2.0000     -10.365881      -282.0700
  16   2.0000     -10.349183      -281.6156
  17   2.0000     -10.342251      -281.4270
  18   2.0000     -10.342161      -281.4245
  19   2.0000     -10.341592      -281.4090
  20   2.0000     -10.341579      -281.4087
  21   2.0000     -10.339808      -281.3605
  22   2.0000     -10.339421      -281.3499
  23   2.0000     -10.308716      -280.5144
  24   2.0000     -10.308667      -280.5131
  25   2.0000     -10.295347      -280.1506
  26   2.0000     -10.295219      -280.1471
  27   2.0000     -10.294539      -280.1286
  28   2.0000     -10.294410      -280.1251
  29   2.0000     -10.291915      -280.0572
  30   2.0000     -10.291864      -280.0559
  31   2.0000      -8.123389      -221.0486
  32   2.0000      -8.123356      -221.0478
  33   2.0000      -8.032745      -218.5821
  34   2.0000      -8.032244      -218.5685
  35   2.0000      -6.086355      -165.6181
  36   2.0000      -6.086345      -165.6179
  37   2.0000      -6.083194      -165.5321
  38   2.0000      -6.083146      -165.5308
  39   2.0000      -6.077774      -165.3846
  40   2.0000      -6.077743      -165.3838
  41   2.0000      -5.996987      -163.1863
  42   2.0000      -5.996494      -163.1729
  43   2.0000      -5.992254      -163.0575
  44   2.0000      -5.991719      -163.0430
  45   2.0000      -5.986583      -162.9032
  46   2.0000      -5.986097      -162.8900
  47   2.0000      -3.611437       -98.2722
  48   2.0000      -2.403898       -65.4134
  49   2.0000      -2.379714       -64.7553
  50   2.0000      -2.365064       -64.3567
  51   2.0000      -1.441013       -39.2120
  52   2.0000      -1.129761       -30.7424
  53   2.0000      -1.005103       -27.3503
  54   2.0000      -0.998240       -27.1635
  55   2.0000      -0.975404       -26.5421
  56   2.0000      -0.962065       -26.1791
  57   2.0000      -0.949684       -25.8422
  58   2.0000      -0.919987       -25.0341
  59   2.0000      -0.892342       -24.2819
  60   2.0000      -0.889566       -24.2063
  61   2.0000      -0.875440       -23.8219
  62   2.0000      -0.862516       -23.4703
  63   2.0000      -0.858368       -23.3574
  64   2.0000      -0.825258       -22.4564
  65   2.0000      -0.810969       -22.0676
  66   2.0000      -0.796047       -21.6616
  67   2.0000      -0.788495       -21.4560
  68   2.0000      -0.769604       -20.9420
  69   2.0000      -0.759364       -20.6633
  70   2.0000      -0.716317       -19.4920
  71   2.0000      -0.715130       -19.4597
  72   2.0000      -0.697208       -18.9720
  73   2.0000      -0.694444       -18.8968
  74   2.0000      -0.687783       -18.7155
  75   2.0000      -0.681800       -18.5527
  76   2.0000      -0.676487       -18.4082
  77   2.0000      -0.663860       -18.0646
  78   2.0000      -0.647761       -17.6265
  79   2.0000      -0.627861       -17.0850
  80   2.0000      -0.615474       -16.7479
  81   2.0000      -0.612821       -16.6757
  82   2.0000      -0.608683       -16.5631
  83   2.0000      -0.592270       -16.1165
  84   2.0000      -0.585265       -15.9259
  85   2.0000      -0.579674       -15.7737
  86   2.0000      -0.576666       -15.6919
  87   2.0000      -0.574918       -15.6443
  88   2.0000      -0.564014       -15.3476
  89   2.0000      -0.558640       -15.2014
  90   2.0000      -0.546467       -14.8701
  91   2.0000      -0.541548       -14.7363
  92   2.0000      -0.529187       -14.3999
  93   2.0000      -0.523637       -14.2489
  94   2.0000      -0.520735       -14.1699
  95   2.0000      -0.518168       -14.1001
  96   2.0000      -0.517039       -14.0693
  97   2.0000      -0.499645       -13.5960
  98   2.0000      -0.492845       -13.4110
  99   2.0000      -0.480858       -13.0848
 100   2.0000      -0.480085       -13.0638
 101   2.0000      -0.469009       -12.7624
 102   2.0000      -0.460273       -12.5247
 103   2.0000      -0.457503       -12.4493
 104   2.0000      -0.453702       -12.3459
 105   2.0000      -0.450661       -12.2631
 106   2.0000      -0.443669       -12.0728
 107   2.0000      -0.439139       -11.9496
 108   2.0000      -0.426723       -11.6117
 109   2.0000      -0.420940       -11.4544
 110   2.0000      -0.413951       -11.2642
 111   2.0000      -0.404841       -11.0163
 112   2.0000      -0.396332       -10.7847
 113   2.0000      -0.395433       -10.7603
 114   2.0000      -0.389511       -10.5991
 115   2.0000      -0.368103       -10.0166
 116   2.0000      -0.364013        -9.9053
 117   2.0000      -0.363572        -9.8933
 118   2.0000      -0.316805        -8.6207
 119   2.0000      -0.309122        -8.4116
 120   0.0000      -0.241233        -6.5643
 121   0.0000      -0.234740        -6.3876
 122   0.0000      -0.204976        -5.5777
 123   0.0000      -0.187910        -5.1133
 124   0.0000      -0.182812        -4.9746

MULLIKEN ATOMIC CHARGES
-----------------------
   0 Fe:   -0.101703
   1 N :    0.253225
   2 O :   -0.132212
   3 S :    0.552228
   4 S :    0.168463
   5 S :    0.168999
   6 S :    0.549272
   7 C :   -0.099914
   8 C :   -0.125143
   9 C :   -0.085594
  10 C :   -0.318264
  11 C :   -0.251242
  12 C :   -0.118979
  13 C :   -0.251639
  14 C :   -0.315383
  15 C :   -0.118981
  16 C :   -0.099898
  17 C :   -0.125434
  18 C :   -0.086104
  19 C :   -0.591792
  20 C :   -0.592851
  21 C :    0.349125
  22 C :    0.349417
  23 N :   -0.539630
  24 C :   -0.108872
  25 C :   -0.109298
  26 C :   -0.107785
  27 H :    0.166097
  28 H :    0.164633
  29 H :    0.162612
  30 H :    0.169596
  31 H :    0.169351
  32 H :    0.165949
  33 H :    0.164387
  34 H :    0.161855
  35 H :    0.227229
  36 H :    0.269512
  37 H :    0.227238
  38 H :    0.269573
  39 H :    0.188494
  40 H :    0.188436
  41 H :    0.195026
Sum of atomic charges:    1.0000000

LOEWDIN ATOMIC CHARGES
----------------------
   0 Fe:   -0.993610
   1 N :    0.371916
   2 O :    0.080395
   3 S :    0.598715
   4 S :    0.124556
   5 S :    0.125520
   6 S :    0.598452
   7 C :   -0.079043
   8 C :   -0.106760
   9 C :   -0.097104
  10 C :   -0.203329
  11 C :   -0.141073
  12 C :   -0.103966
  13 C :   -0.141434
  14 C :   -0.202164
  15 C :   -0.104026
  16 C :   -0.079299
  17 C :   -0.106940
  18 C :   -0.097686
  19 C :   -0.295625
  20 C :   -0.295643
  21 C :    0.086042
  22 C :    0.086512
  23 N :   -0.029864
  24 C :   -0.101900
  25 C :   -0.101865
  26 C :   -0.040938
  27 H :    0.138149
  28 H :    0.137240
  29 H :    0.135384
  30 H :    0.141870
  31 H :    0.141741
  32 H :    0.138075
  33 H :    0.137120
  34 H :    0.134948
  35 H :    0.161473
  36 H :    0.184524
  37 H :    0.160982
  38 H :    0.184372
  39 H :    0.150607
  40 H :    0.150589
  41 H :    0.153089

  Mayer bond orders larger than 0.100000
B(  0-Fe,  1-N ) :   1.2040 B(  0-Fe,  2-O ) :   0.5461 B(  0-Fe,  3-S ) :   0.7383
B(  0-Fe,  4-S ) :   0.9205 B(  0-Fe,  5-S ) :   0.9202 B(  0-Fe,  6-S ) :   0.7357
B(  0-Fe, 23-N ) :   0.5138 B(  1-N ,  2-O ) :   1.5716 B(  3-S , 10-C ) :   0.9218
B(  3-S , 19-C ) :   0.8954 B(  4-S , 11-C ) :   1.0198 B(  5-S , 13-C ) :   1.0178
B(  6-S , 14-C ) :   0.9198 B(  6-S , 20-C ) :   0.8967 B(  7-C ,  8-C ) :   1.4132
B(  7-C , 12-C ) :   1.4734 B(  7-C , 27-H ) :   0.9245 B(  8-C ,  9-C ) :   1.4718
B(  8-C , 28-H ) :   0.9238 B(  9-C , 10-C ) :   1.3869 B(  9-C , 29-H ) :   0.9211
B( 10-C , 11-C ) :   1.3416 B( 11-C , 12-C ) :   1.3936 B( 12-C , 30-H ) :   0.9203
B( 13-C , 14-C ) :   1.3436 B( 13-C , 15-C ) :   1.3927 B( 14-C , 18-C ) :   1.3866
B( 15-C , 16-C ) :   1.4740 B( 15-C , 31-H ) :   0.9204 B( 16-C , 17-C ) :   1.4129
B( 16-C , 32-H ) :   0.9245 B( 17-C , 18-C ) :   1.4723 B( 17-C , 33-H ) :   0.9238
B( 18-C , 34-H ) :   0.9212 B( 19-C , 22-C ) :   0.8983 B( 19-C , 35-H ) :   0.9053
B( 19-C , 36-H ) :   0.8797 B( 20-C , 21-C ) :   0.8975 B( 20-C , 37-H ) :   0.9053
B( 20-C , 38-H ) :   0.8794 B( 21-C , 23-N ) :   1.2016 B( 21-C , 25-C ) :   1.4511
B( 22-C , 23-N ) :   1.2038 B( 22-C , 24-C ) :   1.4483 B( 24-C , 26-C ) :   1.4213
B( 24-C , 39-H ) :   0.9138 B( 25-C , 26-C ) :   1.4200 B( 25-C , 40-H ) :   0.9138
B( 26-C , 41-H ) :   0.9145

FINAL SINGLE POINT ENERGY     -3772.854277890080

DIPOLE MOMENT
-------------
                                X             Y             Z
Electronic contribution:     -0.18094     -15.79801       0.16121
Nuclear contribution   :      0.19760      18.54287      -0.15913
                        -----------------------------------------
Total Dipole Moment    :      0.01666       2.74486       0.00208
                        -----------------------------------------
Magnitude (a.u.)       :      2.74491
Magnitude (Debye)      :      6.97700

Rotational constants in cm-1:     0.009559     0.004005     0.003697
Rotational constants in MHz :   286.575411   120.053356   110.841729

                             ****ORCA TERMINATED NORMALLY****
TOTAL RUN TIME: 0 days 0 hours 2 minutes 27 seconds 284 msec
